JID,Formula,Dir.gap (eV),Indir. gap (eV),Eff (%)
JVASP-50060,Dy1 Tl1 O2,1.0105,0.714,18.48581638
JVASP-14351,Rb2 Te1 I6,2.0308,1.7506,18.4750482
JVASP-29283,Ni1 O2,0.9392,0.6775,18.47242201
JVASP-51903,Li4 C1 O4,2.1858,2.133,18.44460221
JVASP-22649,Rb2 Sn1 Br6,2.213,2.213,18.4323349
JVASP-34040,Te1 Mo1 S1,1.3217,0.8748,18.42897333
JVASP-30242,V1 P1 O5,2.1877,2.1401,18.41981714
JVASP-8145,Hg1 O1,2.1434,2.0125,18.38383413
JVASP-7837,Si1,1.6043,1.106,18.37345481
JVASP-25149,Si1,1.6044,1.106,18.37102387
JVASP-36304,Mg1 Sn1 P2,2.2159,2.2159,18.35218753
JVASP-8307,Te1 O3,1.6093,1.1105,18.34974968
JVASP-56525,Sr1 Al1 Si1 H1,1.5343,1.0321,18.3429698
JVASP-30615,Te1 O3,1.5882,1.0867,18.33664093
JVASP-2691,Na1 Nb1 S2,1.6539,1.1504,18.32181252
JVASP-36446,Be1 Ge1 P2,1.9804,1.6329,18.29453227
JVASP-29478,In1 Sb2 S4 Br1,2.2197,2.2197,18.27398407
JVASP-29245,U1 Se1 O5,2.2183,2.2173,18.26385436
JVASP-35711,Ga1 Sb1,0.5695,0.5695,18.25443415
JVASP-3018,Yb1 Zn2 P2,1.8913,1.4693,18.24812638
JVASP-2688,Li1 Nb1 S2,0.8918,0.6655,18.23107596
JVASP-10143,Nb1 N1 O1,2.186,2.1126,18.22366419
JVASP-8819,Nb1 O2 F1,2.2215,2.2143,18.20104393
JVASP-3282,Rb2 Pd1 F6,2.2259,2.2259,18.18887524
JVASP-10146,Ti1 Hg1 O3,2.2108,2.1835,18.15229
JVASP-24591,K2 Te1 I6,2.1405,1.9821,18.13579369
JVASP-53404,In5 Cu1 S8,0.6272,0.5861,18.12922398
JVASP-28519,Mo3 Se4 S2,0.5656,0.5656,18.10799591
JVASP-4636,Mg1 Al2 Se4,2.2273,2.2273,18.10628324
JVASP-2487,Na1 Mg1 As1,2.2268,2.2268,18.10628324
JVASP-234,Ni1 O2,0.8721,0.6615,18.10619447
JVASP-3180,K1 Au1 F6,2.1991,2.1428,18.09624417
JVASP-39189,Sb1 S1 I1,2.1494,2.0048,18.0899535
JVASP-12195,Ni1 O2,0.8717,0.6613,18.08994067
JVASP-11120,Rb1 Sc5 Te8,0.7873,0.6331,18.08926337
JVASP-4696,Sr1 Li1 P1,2.0333,1.7285,18.08746902
JVASP-8392,Ni1 O2,0.8716,0.661,18.08020421
JVASP-30724,Ni1 O2,0.8718,0.6611,18.075307
JVASP-22668,K4 Zn1 As2,2.2024,2.1494,18.04925625
JVASP-1198,Zn1 Te1,2.2333,2.2333,18.02046978
JVASP-4666,Ga1 Te1,1.5628,1.0468,17.99482943
JVASP-8808,Li1 In1 Se2,1.5099,0.9985,17.99128327
JVASP-57251,Xe1 O3,2.2105,2.1625,17.93998539
JVASP-2199,Mg1 Si1 P2,2.2358,2.2358,17.93228614
JVASP-54897,Zn1 Te1,2.2346,2.2346,17.93228614
JVASP-35744,Ba2 N1 F1,2.2243,2.1983,17.92730955
JVASP-10255,Ba1 Sm2 Pd1 O5,2.2283,2.2101,17.92435565
JVASP-28698,Mo1 W1 Se2 S2,0.5599,0.5599,17.91330188
JVASP-5338,Nb1 S2 Cl2,0.5604,0.5604,17.913225
JVASP-35374,K2 Np1 O4,2.1379,1.96,17.91106985
JVASP-9525,Zn2 Ni3 O8,0.6787,0.5869,17.90154392
JVASP-29148,Mo1 W3 Se8,0.5613,0.5602,17.89545219
JVASP-8571,Ag3 S1 I1,1.9656,1.5761,17.83213326
JVASP-13378,Li2 Cd1 Cl4,2.2413,2.2389,17.82117257
JVASP-61586,Au1 O2 F6,0.5573,0.5573,17.81787221
JVASP-51352,Ag3 S1 I1,1.9659,1.5751,17.81266731
JVASP-8788,Ba1 In2 Te4,1.9204,1.4918,17.80541294
JVASP-28773,Mo1 Se1 S1,0.5571,0.5571,17.77013724
JVASP-12027,Zr1 Br1 N1,2.2441,2.2441,17.75931228
JVASP-3507,Zn1 In2 Se4,2.2457,2.2457,17.75931228
JVASP-22941,Rb3 Sb1 Se4,2.2422,2.2422,17.75931228
JVASP-8816,Ag3 Au1 S2,2.1303,1.9218,17.75679639
JVASP-51768,Ag1 H4 W1 S4 N1,2.1561,1.9879,17.75672233
JVASP-22748,Li2 Ca1 Hf1 F8,2.2166,2.1578,17.75290298
JVASP-23440,Sr2 As1 Au1,1.2785,0.8375,17.74805296
JVASP-3657,Rb2 Pt1 Cl6,2.2429,2.2412,17.74273978
JVASP-57828,Ag1 Hg1 S1 I1,2.2196,2.1641,17.71187605
JVASP-9149,Th3 As4,0.6582,0.5813,17.70492441
JVASP-10018,K2 Si1 As2,2.1245,1.9047,17.69161803
JVASP-12305,Lu6 U1 O12,2.2399,2.2231,17.6801767
JVASP-207,Ge1 S1,1.9052,1.4582,17.66794262
JVASP-24912,B1 Cl1 O2 F4,2.2484,2.2474,17.6605093
JVASP-8288,Bi1 N1,1.2345,0.8063,17.65262495
JVASP-10017,Na1 Ag1 O1,2.2008,2.0997,17.62778514
JVASP-29426,In1 Sb2 S4 Cl1,2.2421,2.2284,17.62606581
JVASP-1792,Cu1 Rh1 O2,1.1935,0.7779,17.60241449
JVASP-58132,Zn1 Ag2 O4,0.9208,0.654,17.59654177
JVASP-10914,Ti1 O2,2.2515,2.2515,17.58339869
JVASP-12679,Ti1 O2,2.2515,2.2515,17.58339869
JVASP-48539,Cr2 O1 F2,0.6063,0.5697,17.55039039
JVASP-26472,Sm3 Cu1 Si1 S7,2.2326,2.1845,17.54294346
JVASP-52866,B4 C1,2.2242,2.1598,17.54104414
JVASP-36492,Sr3 Bi1 P1,0.5502,0.5502,17.5320379
JVASP-25630,Ge1 Cl1 O2 F5,2.2483,2.2324,17.51663091
JVASP-54780,Sb1 H1 O3,2.2555,2.2555,17.49633895
JVASP-3090,Ba1 Hf1 N2,2.2505,2.2405,17.48752411
JVASP-13017,Ga1 Cu1 Cl4,2.2345,2.1891,17.48473656
JVASP-52645,Te1 Pb1,0.606,0.5689,17.46671767
JVASP-8186,Zn1 Te1,2.2585,2.2585,17.40817926
JVASP-60657,In1 Te1 I1,2.2597,2.2597,17.40817926
JVASP-37303,Sn1 I2,1.9476,1.5145,17.39717781
JVASP-25188,Se1,2.2325,2.1652,17.35240847
JVASP-949,O2,2.2598,2.2535,17.3486273
JVASP-4210,Te2 I1,0.8243,0.6368,17.3482903
JVASP-8005,Si1 Os1,0.5582,0.5494,17.29552135
JVASP-1492,Y1 Sb1 Pt1,0.5442,0.5442,17.29083088
JVASP-40764,Zr1 Fe1 Te1,1.7877,1.2595,17.24607075
JVASP-25823,Ag2 Hg1 S1 I2,2.2704,2.2704,17.23541851
JVASP-3228,Sr1 Li1 P1,2.1805,2.0081,17.2331322
JVASP-8645,Ni1 O2,0.9273,0.6477,17.21180444
JVASP-50190,Y1 Tl1 O2,2.2406,2.1745,17.19758931
JVASP-8248,Ni1 O2,0.9269,0.647,17.19733163
JVASP-30560,Ni1 O2,0.9268,0.6469,17.19733163
JVASP-30687,Sb1 O2,2.1456,1.9154,17.18542141
JVASP-10219,Zr1 P2 S6,2.1844,2.012,17.16224349
JVASP-56324,Si2 Ru1,0.8367,0.6367,17.15890414
JVASP-28582,Mo1 Se1 S1,0.5413,0.5413,17.1472926
JVASP-9108,Ru1 Se2,0.8919,0.6432,17.14110046
JVASP-55312,Tl1 V2 Ag1 O6,2.2584,2.2287,17.12741789
JVASP-50474,Er2 Pt2 O7,2.055,1.7015,17.12586062
JVASP-36816,Cd1 Au1 O2,1.9496,1.5008,17.12028866
JVASP-28647,Mo1 W1 Se1 S3,0.5542,0.544,17.06839091
JVASP-2050,Y1 H1 Se1,2.2767,2.2767,17.06045314
JVASP-20215,Sr3 P14,2.2426,2.1699,17.05246522
JVASP-25289,C1,2.2312,2.1327,17.04285923
JVASP-13254,Nb1 Bi3 O7,2.1852,2.0014,17.04011061
JVASP-53457,Pr2 Pb1 Se4,2.2288,2.122,17.03913095
JVASP-34687,Tl2 C1 S3,2.231,2.1297,17.01508321
JVASP-57177,Pd1 Se1 O4,0.8639,0.6383,17.00283093
JVASP-122,Sn1 Se2,1.6977,1.1417,16.99955911
JVASP-13286,Nb1 Bi3 O7,2.1927,2.0172,16.99216335
JVASP-49911,Nb1 N1 O1,2.1973,2.026,16.96507251
JVASP-36484,Sr3 Sb2,0.5366,0.5366,16.95558782
JVASP-8093,Ba1 Ce1 O3,2.27,2.2348,16.90732045
JVASP-8029,Ba1 Ti1 O3,2.1964,2.0187,16.89779749
JVASP-40806,Zr1 In1 Au1,0.5775,0.5491,16.887751
JVASP-8684,Mg2 Al2 Se5,2.2839,2.2839,16.88226346
JVASP-1411,Li1 N3,2.2255,2.0955,16.88141997
JVASP-36483,Ba3 Sb2,0.5336,0.5336,16.85811668
JVASP-22622,Al1 Fe1 F5,0.6048,0.558,16.85118409
JVASP-2355,Zn1 Ge1 P2,2.1667,1.9322,16.81699452
JVASP-3462,Li1 In1 Te2,2.2901,2.2901,16.79302575
JVASP-11160,Hg2 Ge1 O4,2.2884,2.2884,16.79302575
JVASP-33818,Br1 Cl1,2.2883,2.2883,16.79302575
JVASP-3492,Rb1 In1 Te2,2.125,1.8288,16.79071401
JVASP-7696,Na5 Cu1 S1 O2,2.2775,2.2479,16.78849322
JVASP-52912,Mg2 Ni1 H4,2.1659,1.9283,16.78275665
JVASP-1585,K1 Tl1 O2,2.2463,2.1529,16.76857574
JVASP-26948,Rb7 Au5 O2,1.8736,1.3549,16.76110126
JVASP-28399,W1 S2,2.0974,1.7626,16.76012366
JVASP-290,Sn1 S2,2.1822,1.9637,16.73606227
JVASP-36325,Hf1 N2,1.1973,0.7576,16.73492674
JVASP-34235,Li4 C1 O4,2.2813,2.2549,16.72848014
JVASP-36918,Ba1 Hf1 S3,1.797,1.2442,16.72336477
JVASP-3312,Na2 Cu1 As1,2.1804,1.9606,16.72205588
JVASP-25802,Y3 Cu1 Ge1 S7,2.2938,2.2938,16.71390478
JVASP-828,B1,2.1112,1.7863,16.68433808
JVASP-8060,Na1 Cu1 O2,0.8989,0.6339,16.67618676
JVASP-13333,Nd5 Ag1 Se8,2.0775,1.7146,16.65941273
JVASP-3525,K2 Pt1 Cl4,2.2693,2.2048,16.63426278
JVASP-7802,Se1,2.2414,2.1175,16.63204284
JVASP-34267,Li4 C1 O4,2.2995,2.2995,16.62994961
JVASP-36511,Ba3 As1 N1,0.5281,0.5281,16.61645284
JVASP-10704,K2 Sn1 As2 S6,2.1819,1.952,16.61318272
JVASP-7818,P1,2.1208,1.8029,16.59501461
JVASP-10168,Zn1 Ag2 O4,0.7063,0.5695,16.58291478
JVASP-8201,Dy1 Cu1 Se1 O1,2.3015,2.3015,16.54153205
JVASP-34222,Li4 C1 O4,2.3029,2.3019,16.53273336
JVASP-22697,Sb1 O2 F1,2.2901,2.2596,16.51889542
JVASP-10271,K3 Sb1 Se4,2.305,2.305,16.44979312
JVASP-5833,As8 S9,2.3072,2.3072,16.44979312
JVASP-56632,Ba1 Mo4 P2 O16,2.2943,2.2635,16.43894033
JVASP-10581,Lu1 P5,1.202,0.7523,16.42553494
JVASP-52212,Li4 Cu1 P2 O8,0.5679,0.5376,16.4240411
JVASP-53442,Nd2 Pb1 Se4,2.2506,2.1281,16.4092889
JVASP-11145,Ba2 Mg1 U1 O6,2.3083,2.3025,16.39914615
JVASP-10698,Sm3 Au1 O6,2.26,2.1521,16.38844605
JVASP-1771,Tm1 Ag1 Te2,1.8213,1.2571,16.38662307
JVASP-5371,S3 N2 Cl2,2.1126,1.7669,16.37703959
JVASP-28529,Mo1 W2 Se4 S2,0.5227,0.5227,16.36825877
JVASP-8076,Cd1 Ge1 As2,0.5228,0.5228,16.36825321
JVASP-52225,Ti1 Sn1 O4,2.3107,2.3107,16.36400232
JVASP-36452,Ba3 P1 N1,0.5218,0.5218,16.31940087
JVASP-36475,Sr3 As2,0.5212,0.5212,16.31940087
JVASP-30535,Mg1 Sb4 O8,2.2516,2.1182,16.30487205
JVASP-62644,Ba1 Ti1 B2 O6,2.3014,2.274,16.30046459
JVASP-62630,Ba1 Ti1 B2 O6,2.3017,2.2742,16.29958017
JVASP-28452,W1 S2,2.0556,1.638,16.28413579
JVASP-40842,Ba1 Na1 Sb1,1.34,0.8168,16.27553868
JVASP-37423,W1 S1 Cl4,2.3133,2.3133,16.26815804
JVASP-7692,Ga1 Cu1 O2,1.7735,1.1909,16.25957539
JVASP-44760,Te3 W1 O12,2.3053,2.2831,16.25596445
JVASP-4591,Tl6 Te1 O6,2.289,2.2288,16.25200186
JVASP-5203,Sb1 S1 I1,2.2572,2.1257,16.24483788
JVASP-28376,Mo1 Se1 S1,0.5205,0.5199,16.23379141
JVASP-22669,W1 Cl6,2.3032,2.2651,16.20631657
JVASP-36835,Na1 Au1 O2,2.1935,1.9401,16.16809468
JVASP-12897,Pd2 Cl2 O1,0.5206,0.5186,16.14937496
JVASP-25580,K2 Ce1 Si6 O15,2.3055,2.2705,16.14419718
JVASP-7998,U1 O3,0.5677,0.5326,16.14307753
JVASP-1513,Ti1 Co1 Sb1,1.6637,1.0653,16.11484685
JVASP-49834,Li1 Nb1 Te3 O12,2.3022,2.2523,16.10253064
JVASP-2121,As2 Ru1,0.9328,0.6259,16.09411641
JVASP-3924,U1 O2 F2,2.3224,2.3224,16.08869666
JVASP-54456,In1 Ag1 W2 O8,2.2967,2.2356,16.08843529
JVASP-10736,Mg1 Sb4 O8,2.2643,2.1308,16.07081603
JVASP-1909,Na1 In1 Se2,2.2253,2.0145,16.06955276
JVASP-49993,Lu1 Tl1 O2,2.2466,2.0803,16.06535846
JVASP-4204,Pd1 Br2,0.8973,0.6206,16.05007784
JVASP-3999,Na4 Hg1 P2,2.1679,1.8677,16.0305301
JVASP-57362,Li1 Ga1 Mo2 O8,0.5383,0.5212,16.02595317
JVASP-62413,Au1 C1 S2 Cl3,2.3139,2.2852,16.02135015
JVASP-29200,Te2 Mo3 W1 Se6,0.5151,0.5151,16.02130305
JVASP-56219,Li1 B6 C1,2.0376,1.581,15.98784534
JVASP-24314,Ni1 Pb1 F6,0.6962,0.5554,15.98122768
JVASP-28481,Te4 Mo2 W1 Se2,0.514,0.514,15.97150955
JVASP-11574,Mo3 O8,0.7799,0.5884,15.96192824
JVASP-30644,Mo3 O8,0.7797,0.5882,15.94765234
JVASP-13074,Tl1 I1 O4,2.1157,1.732,15.92152897
JVASP-10233,Lu2 Cd1 S4,2.3335,2.3335,15.91309784
JVASP-9083,Sb2 Ir1,0.8003,0.5968,15.91049697
JVASP-22613,Ni1 Pb1 F6,0.6961,0.5538,15.89720663
JVASP-7723,Sr1 S3,2.3203,2.2874,15.89683144
JVASP-25152,C1,0.5114,0.5114,15.86898396
JVASP-7843,C1,0.5114,0.5114,15.86898396
JVASP-1480,Ga1 Cu1 O2,1.7739,1.1719,15.86599358
JVASP-15808,Sr1 Cd2 Sb2,0.5856,0.5341,15.85347553
JVASP-57117,Y3 Cu1 Si1 S7,2.2955,2.1974,15.83837144
JVASP-37188,W1 N2,2.1446,1.7908,15.83228039
JVASP-10884,K1 Pr1 Ge1 Se4,2.329,2.3081,15.83225339
JVASP-33679,B1 Cl1 O2 F4,2.3306,2.319,15.81631755
JVASP-36821,Na1 Cu1 O2,1.0124,0.6552,15.81279086
JVASP-8136,Na2 U1 O4,2.2949,2.1933,15.80716164
JVASP-8813,Mg1 Ge1 P2,2.3036,2.2193,15.80000108
JVASP-40826,Zr1 Sn1 Pt1,1.6724,1.0604,15.79465978
JVASP-10082,Re1 Ag1 O4,2.3341,2.3173,15.77296768
JVASP-1279,Lu1 N1,1.9449,1.4044,15.77295074
JVASP-12982,P3 Br1 Cl14,2.3136,2.2541,15.75661817
JVASP-5200,Bi1 Se1 I1,2.3049,2.2243,15.746191
JVASP-30317,Ni1 P2 S6,0.6387,0.5457,15.74210202
JVASP-41753,Rb3 Ge1 P1 Se7,2.3378,2.3269,15.72546041
JVASP-2205,Al2 Hg1 Se4,2.3422,2.3422,15.72489196
JVASP-12384,Rb2 Pb1 O3,2.3396,2.3396,15.72489196
JVASP-14673,Ag2 O1,0.5077,0.5077,15.72136604
JVASP-48610,Li1 Nb1 Te2 W1 O12,2.3224,2.2787,15.71867044
JVASP-4071,Ga1 Cu1 I4,2.2609,2.0796,15.69522846
JVASP-21223,Li4 Se1 O5,2.3255,2.2777,15.68395583
JVASP-7987,Ba1 Te2,1.8609,1.2734,15.68355469
JVASP-58959,Cd1 Au2 F8,2.3333,2.3057,15.68290027
JVASP-25946,Tl4 V2 O7,2.3251,2.2765,15.67720025
JVASP-3126,Ta1 Cu3 S4,2.2764,2.1256,15.67551863
JVASP-8196,Sm1 Cu1 Se1 O1,2.3454,2.3454,15.62886151
JVASP-55019,Na2 Li1 N1,2.3449,2.3449,15.62886151
JVASP-22599,Hf1 V1 F6,2.2631,2.082,15.6244248
JVASP-3981,K4 Cd1 P2,2.314,2.2381,15.6156623
JVASP-2193,Sb2 Os1,0.9643,0.6265,15.53780181
JVASP-29522,V2 Te2 O7 F2,0.5611,0.5199,15.53161498
JVASP-53326,Yb1 S2,2.269,2.0852,15.52319585
JVASP-51478,Pb3 O4,2.1274,1.7273,15.51240211
JVASP-37117,Pr1 Tl1 Te2,1.6343,1.0087,15.50383264
JVASP-35953,Be1 C2,2.2905,2.144,15.47684016
JVASP-8208,Na1 Be1 Sb1,2.1187,1.6979,15.42773971
JVASP-50250,Li1 Sb1 O2,2.3239,2.2451,15.42156909
JVASP-48,C1,2.3563,2.3468,15.38766327
JVASP-43469,Zr2 N2 O1,2.1179,1.6933,15.38253103
JVASP-2427,Ga1 Ag1 S2,2.3601,2.3601,15.3732572
JVASP-60924,K2 P1 Au1 S4,2.3608,2.3608,15.3732572
JVASP-12916,Br2 O1,2.3057,2.182,15.37015455
JVASP-40227,Ca2 As1 Au1,0.7831,0.5778,15.33674403
JVASP-30504,H1 Au1 O2,2.1398,1.7357,15.30799546
JVASP-8135,Li2 U1 O4,2.3253,2.231,15.29038207
JVASP-2835,Ba1 Ag2 S2,2.3651,2.3651,15.27892529
JVASP-7923,Zn1 O1,2.3631,2.3631,15.27892529
JVASP-8097,Nd1 S1 F1,2.3623,2.3623,15.27892529
JVASP-2841,Rb2 Pt1 Se2,2.0028,1.4645,15.26487279
JVASP-2895,Ho2 C1 F2,2.3046,2.1655,15.23580178
JVASP-36788,K1 Au1 O2,2.251,2.0057,15.23349651
JVASP-32778,Bi1 Se1 Br1,2.327,2.2331,15.21871046
JVASP-3057,Rb1 Ca1 Sb1,2.3527,2.3219,15.21687415
JVASP-37077,Ta1 Cu1 N2,0.7983,0.5817,15.19505311
JVASP-12851,Ga1 Ag1 S2,2.3663,2.3663,15.18340109
JVASP-269,Sr1 Ti1 O3,2.369,2.369,15.18340109
JVASP-72,W1 S2,2.0349,1.514,15.1595459
JVASP-37562,Yb2 Nd2 O5,2.2431,1.9735,15.14030248
JVASP-40776,Zr1 Si1 Pd1,1.2712,0.7584,15.13864061
JVASP-37134,Nd1 Tl1 Te2,1.6424,1.0011,15.13703138
JVASP-40879,Pm1 Tl1 Te2,1.0454,0.6544,15.12915936
JVASP-10663,Na2 Pt1 S2,2.1905,1.8335,15.12653994
JVASP-2727,Al1 Cu1 Te2,2.2033,1.8684,15.123879
JVASP-3192,K1 Ag2 P1 S4,2.3727,2.3727,15.09683322
JVASP-11545,Mg2 Ni3 O8,0.6387,0.534,15.08759811
JVASP-40824,Zr1 Si1 Pt1,1.9786,1.4126,15.07751502
JVASP-14160,Sn1 Ge1 S3,2.3019,2.1354,15.077404
JVASP-53411,Sm2 Pb1 Se4,2.3049,2.1467,15.06922491
JVASP-47094,Li8 Ni1 O4 F2,0.567,0.5141,15.05181266
JVASP-36402,Ru1 C1,1.139,0.6823,15.05044843
JVASP-57259,V1 Cd1 Ag1 O4,2.3696,2.3518,15.04415662
JVASP-36681,Y1 W1 N3,2.2977,2.1146,15.00793716
JVASP-2316,Pr1 S1 F1,2.3752,2.3752,15.00269511
JVASP-26773,Sm3 Cu1 Ge1 S7,2.3767,2.3767,15.00269511
JVASP-13005,Cd2 P3 Br1,2.2099,1.8686,14.99934961
JVASP-52310,Lu2 Pt2 O7,2.2021,1.8487,14.99317643
JVASP-49842,Tm1 Tl1 O2,2.314,2.1656,14.99270221
JVASP-38233,Rb3 Ir1,0.5437,0.5059,14.99042165
JVASP-28908,Te1 W2 Se2 S1,0.5578,0.5098,14.98392595
JVASP-42228,Li1 Cu2 P1 O4,0.5368,0.503,14.98093549
JVASP-12902,K3 Al2 As3,2.3314,2.218,14.96764954
JVASP-7855,Sn1 S1,0.4998,0.4947,14.95598807
JVASP-5506,Au1 Se1 Cl7,2.3819,2.3819,14.91117989
JVASP-10776,Ca1 P2 Ir2,0.5595,0.5094,14.91058012
JVASP-51460,Ga3 Fe1,0.7043,0.5385,14.90189447
JVASP-43605,Be1 Cr1 O4,2.3671,2.3244,14.84936917
JVASP-28366,In2 Se3,1.2577,0.7425,14.846092
JVASP-7684,Er1 S1 F1,2.3872,2.3872,14.82038629
JVASP-25653,Tb3 Cu1 Ge1 S7,2.3856,2.3856,14.82038629
JVASP-10120,Na1 Au1 F4,2.3875,2.3875,14.82038629
JVASP-1228,Sn1 O2,2.385,2.385,14.82038628
JVASP-2838,K2 Pt1 Se2,2.0435,1.503,14.78473144
JVASP-5503,Te1 Au1 Cl7,2.3108,2.126,14.76322483
JVASP-37390,Sr1 Ga1 Si1 H1,1.6965,1.0371,14.74864309
JVASP-51704,Li4 H6 Ru1,2.3903,2.3903,14.73995251
JVASP-176,Sb1 I3,2.393,2.393,14.73995251
JVASP-22567,Sn1 O2,2.393,2.393,14.73995251
JVASP-8659,Rb2 Sn1 I6,0.4894,0.4894,14.73148696
JVASP-10718,Ag2 Sn1 Hg1 Se4,0.4893,0.4893,14.73143531
JVASP-10580,Tm1 P5,1.2049,0.7082,14.71764089
JVASP-7682,Rb2 Pd1 C2,2.386,2.3724,14.71745528
JVASP-7785,Sn1 S1,2.0763,1.5566,14.71719489
JVASP-29474,Cd1 Sb1 S2 Br1,2.3767,2.3391,14.71331935
JVASP-40788,Ti1 Fe1 Te1,1.2908,0.7549,14.71130214
JVASP-10969,K1 Th1 Cu1 S3,2.3919,2.3851,14.68886619
JVASP-34432,Ta2 Tl3 Cu3 S8,2.2987,2.0787,14.681386
JVASP-22723,Mg1 Mo1 N2,1.798,1.1371,14.65921832
JVASP-2631,Th2 Se1 N2,2.3956,2.3956,14.65568023
JVASP-49974,Sm1 Tl1 O2,2.398,2.398,14.65568023
JVASP-4074,P1 I2,2.3953,2.3942,14.64748158
JVASP-1216,Cu2 O1,0.4878,0.4878,14.63745222
JVASP-2080,Zr1 Co1 Bi1,1.6947,1.03,14.62705534
JVASP-26334,Ba2 Nd1 Bi1 O6,2.3974,2.3932,14.62437312
JVASP-21245,Na1 Nb1 O3,2.3977,2.3914,14.60871742
JVASP-34224,Li4 C1 O4,2.3202,2.1345,14.59399648
JVASP-10666,Ca1 B2 C2,1.7073,1.0394,14.5893501
JVASP-9090,B6 O1,2.4022,2.4022,14.58607437
JVASP-45329,Mg1 Au2 F8,2.3999,2.3993,14.5816499
JVASP-12390,K2 Na1 In1 P2,2.3928,2.371,14.57616389
JVASP-21527,Tl1 As1 S2,2.3279,2.1563,14.5660119
JVASP-47311,Li1 V1 F6,2.3983,2.3929,14.54612338
JVASP-18318,Ag1 I1,2.1343,1.6593,14.54073437
JVASP-9710,Na4 U1 O5,2.3958,2.3776,14.5200198
JVASP-1681,Sr1 Hf1 N2,2.0419,1.478,14.5089068
JVASP-7820,Li2 Cu1 Sb1,1.4749,0.8474,14.50699641
JVASP-31987,H8 N3 O6,2.3939,2.3729,14.4991343
JVASP-2088,Ba1 S3,2.4073,2.4073,14.49286511
JVASP-29801,Te1 H2 O4,2.4059,2.4059,14.49286511
JVASP-43078,Li3 Bi1 O4,2.3734,2.2943,14.48300706
JVASP-13421,Pt1 S2 Cl8,2.3893,2.3529,14.46649846
JVASP-58908,Pt1 S2 Cl8,2.3894,2.3529,14.46574197
JVASP-53640,Y1 Cu1 Se2,1.9498,1.3276,14.46335983
JVASP-34736,Ba1 Ag2 Hg2 O4,2.2382,1.892,14.45969487
JVASP-8675,Pt1 S2 Cl6,2.4021,2.3845,14.45581841
JVASP-10158,Li4 U1 O5,2.4017,2.375,14.38846392
JVASP-5470,Au1 S1 Cl5,2.4073,2.3915,14.37692344
JVASP-53421,Ag3 S1 I1,1.8466,1.1796,14.36921681
JVASP-19106,Sn1 P1 S3,2.3244,2.1189,14.34973858
JVASP-8456,Ge1 O2,2.3501,2.2028,14.34960052
JVASP-2044,Ca2 As1 I1,2.2844,2.0037,14.34313204
JVASP-2859,K4 Hg1 P2,2.4112,2.4018,14.332222
JVASP-35129,Ca6 Ge2 O1,0.4818,0.4818,14.31709165
JVASP-29802,Te1 H2 O4,2.4122,2.4122,14.31171462
JVASP-37075,Sm1 Tl1 Te2,1.6921,1.0131,14.3116795
JVASP-20839,Li2 C1 O3,2.3576,2.2187,14.2688021
JVASP-33181,Ru1 C4 O4,2.3638,2.2356,14.2679483
JVASP-42826,Li1 V1 Ge1 O5,2.4128,2.4064,14.26554742
JVASP-39959,Ac1 N1,2.1136,1.5908,14.25638844
JVASP-50887,Na4 Np1 O5,2.4104,2.3894,14.24782329
JVASP-3081,Na1 Al1 Te2,2.3828,2.291,14.21061973
JVASP-10014,Rb2 Si1 As2,2.2275,1.8369,14.20834084
JVASP-5677,Al2 Te3,2.3763,2.2727,14.20554461
JVASP-10536,Li1 As1 O3,2.3996,2.3481,14.2048939
JVASP-35635,Li5 P1 S4 Cl2,2.3713,2.2558,14.20065591
JVASP-14204,Sb1 Cl4 F1,2.4174,2.4037,14.1219972
JVASP-13003,In1 Te1 Br1,2.4213,2.4074,14.12056818
JVASP-5362,As4 S3,2.4232,2.4232,14.12004155
JVASP-39685,Li2 Tl1 Bi1,0.4787,0.4787,14.11534155
JVASP-62175,Te3 As2,0.5377,0.4886,14.07312234
JVASP-25817,Ru1 Cl1 O2 F6,0.5231,0.4843,14.03733264
JVASP-48577,V1 O1 F3,2.4155,2.3766,14.0310579
JVASP-10471,K2 Ta1 Cu1 Se4,2.3616,2.1927,14.03042232
JVASP-57241,V2 Cd1 O6,2.4045,2.3413,14.02911602
JVASP-35597,Li1 Nb1 Se2,1.477,0.8321,14.02656861
JVASP-12805,Li3 B1 O3,2.4286,2.4286,14.02328084
JVASP-54605,Ba2 Zn1 Ag2 Se2 O2,2.4284,2.4284,14.02328084
JVASP-35178,Na3 Li1 P2 O7,2.403,2.3387,14.02105218
JVASP-240,Ni1 O2,0.8952,0.578,14.01160622
JVASP-60637,V2 O5,2.3799,2.2594,13.99167897
JVASP-7846,Tl1 Se1,1.3307,0.7436,13.98864229
JVASP-35250,Na2 H6 Ir1,0.6076,0.5081,13.98215916
JVASP-30422,V2 O5,2.3037,2.0121,13.97862943
JVASP-53186,Lu1 Cu1 Se2,2.1705,1.6813,13.96021125
JVASP-30571,V2 O5,2.3011,2.007,13.95672712
JVASP-7653,Na1 Au1 C2,2.3785,2.2398,13.93559424
JVASP-55527,P1 Pb1 Se3,2.389,2.2819,13.93555299
JVASP-22689,Ba2 H6 Ru1,2.3514,2.1522,13.93100398
JVASP-8126,Na1 Cu1 Te1,2.4321,2.4321,13.92872111
JVASP-8666,Tl1 Ag1 I2,2.4325,2.4325,13.92872111
JVASP-22706,Li3 V1 S4,2.3415,2.1221,13.92565771
JVASP-29365,Ni1 O2,0.8944,0.5765,13.91978661
JVASP-40772,Y1 Ni1 P1,1.1615,0.6639,13.88150801
JVASP-28794,Te2 Mo3 W1 S6,0.6743,0.5138,13.85991243
JVASP-57507,In1 Bi2 S4 Cl1,2.4121,2.3365,13.85062729
JVASP-8686,Ag1 Bi1 S2,1.8288,1.1287,13.84546581
JVASP-5770,As1 Cl5,2.4399,2.4399,13.83057207
JVASP-9285,Zn1 Sb4 O8,2.44,2.4294,13.75745001
JVASP-52516,Sb1 O2 F1,2.4269,2.3883,13.75218192
JVASP-2301,Sm1 S1 F1,2.443,2.443,13.73818556
JVASP-7968,Na1 Au1 O2,2.2535,1.8512,13.73227674
JVASP-5683,Ga1 Te1 I7,2.405,2.2971,13.70124006
JVASP-7900,V1 Ag3 O4,2.3631,2.1626,13.69819427
JVASP-9072,Ca3 N2,2.4037,2.2948,13.69390535
JVASP-8718,Th1 C1 N1,2.2448,1.8242,13.67646263
JVASP-30452,B2 S3,2.4043,2.2902,13.65577351
JVASP-3162,K1 Sb1 S2,2.4469,2.4469,13.64240415
JVASP-24901,Sb1 S1 Cl9,2.4476,2.4476,13.64240415
JVASP-10569,Rb2 Ge1 Se3,2.4238,2.3563,13.64166161
JVASP-9117,Fe1 S2,0.4816,0.4701,13.62502597
JVASP-13425,Sb1 S1 Cl9,2.4434,2.4268,13.62472782
JVASP-13904,Ag1 Cl1 O2,2.4091,2.2987,13.59756871
JVASP-10480,Rb1 Se1,2.3561,2.123,13.59608207