JID,Formula,Dir.gap (eV),Indir. gap (eV),Eff (%)
JVASP-47646,Li1 Ag1 F4,1.0283,0.8351,23.4203266
JVASP-29077,Te2 Mo1 W1 S2,0.9434,0.781,23.40759746
JVASP-28758,Mo1 W1 Se1 S3,0.684,0.6834,23.40105388
JVASP-895,I1,1.8131,1.6168,23.36922842
JVASP-25189,Se1,1.9829,1.9829,23.36631326
JVASP-9244,Mg1 V2 O6,1.9827,1.9827,23.36631326
JVASP-28544,Mo1 W2 Se2 S4,0.6818,0.6818,23.33604949
JVASP-5839,Al1 Si1 Te3,1.8766,1.7423,23.32983131
JVASP-22635,In1 Si1 Te3,1.1284,0.8781,23.32192635
JVASP-19255,Mg2 Mo3 O8,1.9843,1.9843,23.29973531
JVASP-8128,Ba1 Se3,1.9639,1.9331,23.29769007
JVASP-8030,Sm4 S3 N2,1.9705,1.9477,23.28970175
JVASP-29787,U1 H2 O4,1.9854,1.9832,23.2674842
JVASP-49764,Na1 Ag1 O2,1.4993,1.1782,23.26538384
JVASP-61884,Te1 As1 Ru1,1.1341,0.8801,23.24186247
JVASP-3225,Na1 Sr1 P1,1.9896,1.9896,23.23234758
JVASP-36792,Ag1 Pt1 O2,1.2853,0.9993,23.22593897
JVASP-2607,Na2 Cu1 P1,1.6032,1.3009,23.20384724
JVASP-1257,U1 O3,1.8691,1.7175,23.18552278
JVASP-10221,Mg1 Pt3 O6,0.7055,0.6859,23.18478883
JVASP-2526,K1 Mg1 Sb1,1.9819,1.9673,23.15108482
JVASP-46820,Li5 Sb1 S1,1.5938,1.2863,23.15105734
JVASP-54924,K1 Ta1 Ag2 Se4,1.989,1.9827,23.14035857
JVASP-40367,K4 P2 Pd1 S8,1.9924,1.9903,23.13396628
JVASP-2697,Na1 Nb1 Se2,1.3691,1.0426,23.12734565
JVASP-3819,K2 Ag1 Bi1,1.8339,1.6414,23.11204601
JVASP-8149,K3 P1,1.9142,1.8067,23.09754629
JVASP-3288,Al1 Ag1 Te2,1.9935,1.9935,23.09568553
JVASP-36001,Na1 Li1 I1 Cl1,1.8077,1.5908,23.06674011
JVASP-12389,K2 Na1 In1 As2,1.9907,1.9833,23.05694092
JVASP-50193,Li1 Y1 S2,0.9725,0.7908,23.05261667
JVASP-42057,Rb1 Ac1 Te2,1.8698,1.7082,23.01132651
JVASP-14975,Nd1 N1,0.7599,0.7116,22.99923413
JVASP-4149,Rb2 Te5,0.9284,0.765,22.93754352
JVASP-29830,U1 H2 O4,1.9839,1.9587,22.92994654
JVASP-28372,Ga1 P1,1.8429,1.651,22.92980524
JVASP-4044,K1 Au1 Se2,1.8202,1.6053,22.92834772
JVASP-10690,Li1 Nd1 Ti1 O4,1.9031,1.7712,22.91492508
JVASP-10669,Ba1 Y1 Cu1 Te3,1.1713,0.8985,22.89653043
JVASP-2952,Ba2 Hf1 S4,1.7111,1.4278,22.87704105
JVASP-1157,Ge1 Te1,1.0308,0.8241,22.86639674
JVASP-30515,K1 Ag1 O2,1.7258,1.4458,22.84656174
JVASP-28580,Mo1 W1 Se2 S2,0.6728,0.6728,22.84311923
JVASP-4285,Sb2 S3,1.9583,1.8886,22.83084495
JVASP-19010,Sb2 S3,1.9581,1.8874,22.81555302
JVASP-12578,K1 Li2 H3 O3,2.0041,1.9996,22.81278165
JVASP-30233,Mn1 C2 O6,0.7811,0.7205,22.80821207
JVASP-7639,K3 Sb1,2.0078,2.0078,22.80451646
JVASP-22544,Ag1 As1 F6,2.0087,2.0085,22.80169418
JVASP-31174,Ag1 As1 F6,2.0086,2.0084,22.80169418
JVASP-3069,Li2 Ce1 P2,0.7351,0.6938,22.78909211
JVASP-25368,Si1,1.9794,1.9343,22.76469415
JVASP-39094,Si2 B2 O5,0.7049,0.6775,22.74145389
JVASP-9933,Ca1 Cu2 O4,0.738,0.6946,22.73979059
JVASP-12484,Na1 Bi1 O3,1.9378,1.8365,22.71787797
JVASP-54768,U3 H2 O10,2.0103,2.0057,22.67138781
JVASP-10220,Zn1 Pt3 O6,0.689,0.6706,22.66704787
JVASP-25660,Mo1 F3,0.7311,0.6893,22.66375783
JVASP-29452,Cu1 S4 Br1 N4,0.6982,0.674,22.65858993
JVASP-19354,Zn1 Bi1 O3,1.5566,1.2189,22.65623749
JVASP-10032,Zn1 Sb2 O4,1.7481,1.4709,22.65122335
JVASP-30483,P1 W4 Cl11,0.6696,0.6696,22.64961496
JVASP-9880,Ca1 Ag2 O4,1.4091,1.063,22.64323543
JVASP-22720,Ba2 Sb1 Au1,1.171,0.8916,22.63510201
JVASP-41264,Ac1 Tl1 Te2,1.7449,1.4652,22.63263076
JVASP-14666,Pr1 N1,0.6768,0.6691,22.59672154
JVASP-2367,Cd1 Si1 P2,2.0167,2.0167,22.59357196
JVASP-38599,K1 P2 Au1 S7,1.9742,1.9068,22.55773355
JVASP-36451,Sr3 As1 P1,0.6669,0.6669,22.5538704
JVASP-25649,Na1 Bi2 Au1 O5,1.7204,1.425,22.53673583
JVASP-213,Hf1 Se3,1.3036,0.9881,22.528854
JVASP-3678,Rb2 Pb1 Cl6,2.0206,2.0206,22.52466611
JVASP-28668,Mo1 W1 S4,1.5976,1.2647,22.50024836
JVASP-8506,Pb1 Se1,1.802,1.5511,22.49665627
JVASP-38208,Rb3 P1,1.8177,1.5766,22.48081615
JVASP-22551,N2 O5,1.9675,1.886,22.46796365
JVASP-3123,Sr1 Ag1 P1,0.8534,0.7476,22.44768866
JVASP-4038,K1 Sb2,1.1283,0.8554,22.38319939
JVASP-18556,Na3 Li3 N2,1.5345,1.1825,22.38222426
JVASP-2376,Zn1 Si1 P2,2.0265,2.0265,22.37771086
JVASP-5221,W1 Cl6,2.028,2.028,22.37771086
JVASP-11161,K1 Rb2 Rh1 F6,2.0275,2.0275,22.37184861
JVASP-48879,Li1 V1 Te3 O12,1.9092,1.7506,22.3666756
JVASP-9227,Ca1 Sb2 O6,2.0236,2.0169,22.35943633
JVASP-2457,Nb1 Cu3 S4,1.8162,1.5681,22.34923946
JVASP-24954,Nb2 Tl5 S4 Br9,1.9968,1.9498,22.34610215
JVASP-9691,Ba1 Ce1 O3,2.0006,1.9566,22.31966199
JVASP-43663,Li1 Tm1 O2,1.9785,1.9032,22.31748208
JVASP-62191,Cu1 As4 S3 Cl1,2.0332,2.0332,22.2315506
JVASP-36755,Li1 Au1 O2,1.6541,1.3188,22.22843777
JVASP-9447,Ag1 Sb1 S2,1.9212,1.7666,22.22155197
JVASP-42082,K1 P1 Au1 Se3,1.9319,1.7882,22.16587302
JVASP-4098,K4 Cd1 As2,1.9894,1.916,22.16057012
JVASP-3339,K1 Ag1 Se1,2.0379,2.0379,22.15752789
JVASP-8576,K2 Os1 Cl4 O2,2.0381,2.038,22.15614874
JVASP-28367,Mg2 Zn1 As2,1.9099,1.7372,22.13497985
JVASP-51910,Ca3 Sc1 Co1 O6,0.7628,0.697,22.12129779
JVASP-55115,Se1 N1,2.0055,1.951,22.10036888
JVASP-10192,Li1 As1,1.2241,0.9192,22.09878498
JVASP-2601,Li2 Pd1 O2,1.6351,1.2861,22.08814966
JVASP-8670,Sb1 Te1 I1,1.6016,1.2528,22.07252292
JVASP-11114,Sr1 Lu1 Cu1 S3,1.9705,1.8655,22.05553584
JVASP-48546,Li1 V1 O2 F2,1.7651,1.4686,22.03273143
JVASP-5224,Hg1 I2,2.045,2.045,22.00692329
JVASP-36479,Ba3 Bi1 As1,0.6561,0.6561,21.99029815
JVASP-10662,Na2 Pd1 S2,1.78,1.4905,21.98310953
JVASP-50177,Li2 Nb1 O1 F5,2.0261,1.9967,21.97323632
JVASP-36197,B2 As1 P1,1.9201,1.75,21.97123166
JVASP-1408,Al1 Sb1,1.933,1.7769,21.96919233
JVASP-51286,Li1 B1 Br2,1.4754,1.1075,21.95766195
JVASP-1519,Sc1 Cu1 S2,1.4054,1.037,21.93670687
JVASP-2931,Al2 Te5,1.8175,1.5474,21.93571274
JVASP-2694,K1 Nb1 S2,1.6331,1.2762,21.91616714
JVASP-24276,Rb2 U3 I4 O20,2.0473,2.0454,21.90662691
JVASP-30203,Ag1 Br1 O4,1.4132,1.0427,21.88161158
JVASP-50387,Sm2 Pt2 O7,1.7009,1.3676,21.84766729
JVASP-51034,U1 H2 O4,2.0499,2.0491,21.84565775
JVASP-25606,Na1 U1 B1 O5,2.0501,2.0476,21.82307738
JVASP-8180,Ho1 N1,1.5166,1.143,21.81689316
JVASP-59083,Mg1 B9 N1,2.0365,2.0093,21.78912926
JVASP-8655,K1 Au1 O2,1.9158,1.7275,21.78090726
JVASP-36388,Sc1 P1,2.0443,2.0274,21.78041542
JVASP-4714,Na1 Yb1 P2 S6,2.0552,2.0552,21.78027247
JVASP-9699,Li1 Cu1 O1,1.9187,1.7333,21.77649304
JVASP-39401,Li1 In1 I4 O12,0.6698,0.6543,21.76125237
JVASP-49924,Ti3 N2 O3,1.9952,1.9026,21.75657389
JVASP-1369,Y1 N1,1.5441,1.1697,21.74251263
JVASP-9386,Zn1 Sb2 O6,1.8336,1.5656,21.72568522
JVASP-30671,Al1 Sb1 O3,2.0532,2.0486,21.71956581
JVASP-29025,Te2 Mo1 W1 Se2,0.651,0.651,21.71571108
JVASP-5713,Nb3 Te1 I7,0.652,0.652,21.71571108
JVASP-39748,Yb2 As1 Au1,0.7381,0.6758,21.71150764
JVASP-7671,Cd1 Se1,2.0571,2.0571,21.70619935
JVASP-2850,Na3 Sb1 Se4,2.0591,2.0591,21.70619935
JVASP-35632,Ho1 O3,2.0329,1.9907,21.6570498
JVASP-13304,Pr2 Cd1 Se4,2.0621,2.0621,21.63444328
JVASP-10212,Li1 N1 O3,2.0411,2.0078,21.63383425
JVASP-347,W1 S2,1.8408,1.5743,21.62529348
JVASP-40299,Sr2 Bi1 Au1,1.0418,0.8023,21.59817251
JVASP-8010,Ba1 Te1,1.5541,1.1754,21.58891716
JVASP-37013,K1 O3,1.9942,1.8887,21.57006343
JVASP-43142,Li1 V3 O8,1.9668,1.8256,21.56794814
JVASP-35541,Nb1 Tl3 Se4,2.0641,2.0641,21.56086894
JVASP-22559,Mg1 V1 O3,0.6772,0.6514,21.55952425
JVASP-40858,Ba2 Bi1 Au1,1.0987,0.8248,21.5586086
JVASP-32747,Si1 Se2,1.8973,1.6769,21.54561708
JVASP-9908,Mg1 Cu2 O4,0.6487,0.6487,21.53522983
JVASP-2556,Ca1 Cd2 Sb2,0.8462,0.7271,21.50922498
JVASP-10563,Rb1 Hf1 Ag1 Te3,0.6988,0.6531,21.50538111
JVASP-36837,Sr1 Au1 O2,1.9852,1.8623,21.49703414
JVASP-10036,Ti1 O2,2.0697,2.0697,21.48578507
JVASP-5,Ti1 O2,2.0697,2.0697,21.48578507
JVASP-11997,As1,0.687,0.6495,21.48007532
JVASP-25145,As1,0.687,0.6495,21.48007532
JVASP-28459,Te2 W3 Se2 S2,1.3827,1.0016,21.46715444
JVASP-13283,Pr5 Cu1 Se8,1.3452,0.9749,21.45175632
JVASP-2865,Ca4 As2 O1,1.9573,1.795,21.41543594
JVASP-2916,Ba1 Cu1 Se1 F1,2.0718,2.0718,21.41175064
JVASP-4358,Ga1 Se1,2.071,2.071,21.41175064
JVASP-13323,Nd5 Cu1 Se8,1.3919,1.0061,21.35862165
JVASP-29666,Ti1 Cl3,0.6824,0.6479,21.35758012
JVASP-8554,In1 Cu1 Se2,0.6442,0.6442,21.35687764
JVASP-31941,Cu1 H12 I4 N4,0.6555,0.6458,21.34313178
JVASP-2373,Ga2 Hg1 Se4,2.0752,2.0752,21.33757317
JVASP-54764,U3 H2 O10,2.0736,2.0736,21.33757317
JVASP-40203,Ca1 Sn1 S3,1.7033,1.3465,21.32421341
JVASP-75,W1 Se2,1.7672,1.4356,21.29900426
JVASP-31796,W1 Se2,1.767,1.4349,21.28895343
JVASP-9234,V2 Zn1 O6,2.0459,1.9916,21.27924331
JVASP-59198,Ba1 Mn2 O8,2.0285,1.9482,21.27328623
JVASP-4534,P1 Pd1 S1,0.8387,0.7207,21.26513916
JVASP-22715,K1 Ca1 Bi1,2.0049,1.8905,21.24744102
JVASP-36898,Li1 Sn1 Cl3,2.0287,1.9465,21.247136
JVASP-3930,K5 Cu1 Sb2,2.0024,1.8813,21.21623965
JVASP-54869,Ba1 Al1 Si1 H1,1.3885,0.9985,21.21528918
JVASP-33304,Cu1 Sn1 H12 N2 O6,0.6893,0.6455,21.21306917
JVASP-4606,Sc1 Ag1 P2 S6,2.0676,2.0461,21.20814185
JVASP-13020,Cu2 Pb1 O2,0.831,0.7168,21.19446129
JVASP-9923,Sn1 O2,2.071,2.0538,21.19084138
JVASP-29470,Ag1 Pb1 Br1 O1,2.0804,2.0804,21.18629142
JVASP-35680,Pb1 S1,0.6646,0.6431,21.1328544
JVASP-51,Mo1 S2,1.6696,1.2929,21.13026529
JVASP-36309,Be1 Ge1 As2,1.7104,1.3462,21.12868321
JVASP-2802,Tl3 Sb1 S3,2.0852,2.0852,21.11421111
JVASP-10571,Rb1 Sb2 Se4,1.9621,1.7863,21.10132968
JVASP-13835,Y1 N1,1.9068,1.6683,21.09874507
JVASP-10264,Sb1 Ir1 S1,1.8808,1.6191,21.0952388
JVASP-53166,Ca1 In2 Te4,1.6306,1.2393,21.05597019
JVASP-8034,Tl1 S1,1.6301,1.2385,21.04882023
JVASP-5806,P1 Au1 S4,1.7856,1.451,21.03911141
JVASP-37520,Sr1 Al1 Ge1 H1,1.6391,1.2453,20.9850756
JVASP-12964,Cd2 As3 Br1,1.8708,1.5942,20.96813508
JVASP-3504,Na1 In1 Te2,1.8501,1.5531,20.94976504
JVASP-36810,Cu1 Cl1 O2,0.7398,0.6626,20.94075562
JVASP-35746,Ba2 Br1 N1,2.0914,2.0879,20.92262223
JVASP-56819,Pt1 Cl2,1.3338,0.9511,20.91749423
JVASP-9747,Na1 As1 S2,2.0967,2.0967,20.89327609
JVASP-36581,Mg1 Si1 As2,2.0975,2.0975,20.89327609
JVASP-50835,Li1 Cu1 S1,2.0953,2.0953,20.89327609
JVASP-8119,Sc1 Sb1 Pt1,0.9806,0.7482,20.83289016
JVASP-26825,Mg3 Nb6 O11,1.2179,0.8804,20.82529499
JVASP-29879,Sn1 Se1,1.6153,1.2192,20.8199857
JVASP-22637,Cd1 In2 Se4,2.0998,2.0998,20.81788335
JVASP-2565,K1 Zn1 P1,2.1006,2.1006,20.81788335
JVASP-29566,Hg1 I2,2.1011,2.1011,20.81788335
JVASP-8795,Zn1 In2 Se4,2.0982,2.0982,20.81788335
JVASP-60703,Hg1 I2,2.0996,2.0996,20.81788335
JVASP-22707,Ca1 Cd3 O4,2.0987,2.0987,20.81788334
JVASP-36621,Zr1 Zn1 O3,1.5809,1.1758,20.79510012
JVASP-237,Ni1 O2,0.8323,0.7092,20.78574995
JVASP-34014,Te1 Mo1 S1,0.6339,0.6339,20.76110858
JVASP-28545,Mo1 W2 Se2 S4,0.6339,0.6338,20.75548829
JVASP-57291,Cu1 Bi1 W2 O8,0.8508,0.7129,20.7518484
JVASP-13132,Rb1 Au1 Br4,2.0653,2.0029,20.75095398
JVASP-22728,Ca2 Sn1 S4,2.1023,2.1023,20.75001941
JVASP-4186,Te2 Br1,0.6556,0.6354,20.74306594
JVASP-22672,Cs1 K2 Sb1,2.0811,2.0452,20.73274012
JVASP-12921,Ba1 Al2 Te4,2.1069,2.1069,20.68858783
JVASP-8388,Mo1 W1 O6,2.1063,2.1063,20.68858783
JVASP-13856,Ga1 Se1,2.1064,2.1064,20.68858783
JVASP-35454,Pr2 Al1 N1 O3,2.1002,2.0856,20.63829916
JVASP-57488,K2 Li4 U1 O6,0.9316,0.7186,20.62535841
JVASP-9399,Nb2 Sn1 O6,2.1028,2.0911,20.6068799
JVASP-11132,Nd1 S2,1.6544,1.2492,20.60239354
JVASP-1768,Sc1 Ag1 Se2,1.6123,1.2041,20.53610345
JVASP-20088,Hg1 S1,0.6292,0.6292,20.53561471
JVASP-362,Zr1 Se3,0.9805,0.7417,20.53442949
JVASP-36660,Zn1 O1,2.1145,2.1145,20.52983221
JVASP-43396,Sr1 Nb3 N1 O7,2.0084,1.8471,20.51909361
JVASP-40793,Sc1 Co1 Te1,1.2786,0.9172,20.51539228
JVASP-35747,Ba2 N1 Cl1,2.1133,2.1095,20.48407484
JVASP-49776,Na3 Cu1 O2,2.0659,1.9824,20.47715306
JVASP-36754,Li1 Au1 O2,1.9509,1.719,20.45625772
JVASP-22547,Ba1 Ga2 Te4,1.656,1.245,20.45163017
JVASP-12878,Cu1 B1 Se2,2.1166,2.1166,20.45143077
JVASP-31190,Ba1 Ga2 Te4,1.6561,1.2449,20.44696673
JVASP-2268,Th1 Te1 O1,0.6258,0.6258,20.40909108
JVASP-28765,Mo1 W1 S4,0.6258,0.6258,20.40909086
JVASP-3048,Yb4 As2 O1,2.029,1.8844,20.38958983
JVASP-3834,K2 Pt1 Br6,2.0328,1.8966,20.37802012
JVASP-3681,Ag2 Hg1 I4,2.1218,2.1218,20.36999697
JVASP-59311,Ba1 Ti1 O3,2.1214,2.1214,20.36999697
JVASP-29556,Ga1 Se1,2.1204,2.1204,20.36999697
JVASP-8728,Ti1 Sn1 Pt1,1.2917,0.9195,20.3500161
JVASP-51358,Tl1 In1 S2,1.3319,0.9331,20.34562362
JVASP-22724,Na1 Li2 Bi1,1.3227,0.931,20.33745112
JVASP-1924,In1 Br1,1.9184,1.6433,20.32292275
JVASP-8651,K2 Pt1 Br4,2.0792,2.0036,20.30161485
JVASP-28578,Mo3 W1 Se4 S4,0.6229,0.6229,20.2914885
JVASP-33896,In1 Ge1 Cl3,2.125,2.125,20.28738541
JVASP-57180,Dy3 Cu1 Sn1 S7,2.1254,2.1254,20.28738541
JVASP-22878,K3 Nb1 Se4,2.1243,2.1243,20.28738541
JVASP-41744,Ac1 Ga1 Te2,1.473,1.047,20.28012122
JVASP-35197,Na8 N1 O3,0.7511,0.6563,20.27796756
JVASP-29165,Mo1 W1 Se2 S2,0.6202,0.6202,20.2319879
JVASP-49940,Er2 Te1 O2,2.0513,1.9278,20.21932592
JVASP-49934,Er1 Tl1 O2,2.1044,2.0529,20.12010658
JVASP-52492,Nb1 N1 O1,1.8728,1.5469,20.11480371
JVASP-8303,Al1 V1 F5,0.7616,0.6578,20.06826799
JVASP-34004,Te4 Mo3 S2,1.304,0.9156,20.04848077
JVASP-30438,Sb2 S2 O1,2.1139,2.0738,20.04736393
JVASP-4858,Tm1 Ag1 P2 Se6,2.0881,2.0086,20.04702751
JVASP-47331,Li3 V1 F8,2.1343,2.1343,20.04238844
JVASP-81,Ga1 Se1,2.1372,2.1372,20.04238844
JVASP-5404,V1 N1 Cl4,0.676,0.6236,20.04071292
JVASP-37124,Pr1 N1,1.972,1.7352,20.02876222
JVASP-9993,Ba1 Y1 Ag1 Se3,2.0011,1.796,20.01507847
JVASP-38113,Y1 W1 N3,2.0916,2.014,20.00168483
JVASP-59088,Rb3 Os2 Br9,0.7732,0.6627,20.00114522
JVASP-2613,K2 Ag1 Sb1,2.07,1.9601,20.00084035
JVASP-60927,K3 As1 Se4,2.1335,2.1229,19.99868817
JVASP-36413,Ba1 Si1 C1,1.0108,0.7479,19.99572601
JVASP-45961,Li1 Si1 P1 C1 O7,2.125,2.0994,19.98479409
JVASP-46049,Ho2 Te1 O2,2.0037,1.8002,19.97979633
JVASP-28538,Mo2 W1 Se2 S4,0.6152,0.6152,19.94045203
JVASP-1023,Te1,0.615,0.615,19.94045203
JVASP-25210,Te1,0.6146,0.6146,19.94045203
JVASP-9075,Sr2 Si1,0.6129,0.6129,19.87293552
JVASP-55288,Sr3 Tb1 Rh1 O6,2.1194,2.0767,19.86225893
JVASP-51636,Nd3 Cu1 Si1 Se7,2.0581,1.9162,19.84555915
JVASP-7629,Sn1 S1,1.2833,0.9011,19.84145147
JVASP-1588,Rb1 Tl1 O2,2.0752,1.9569,19.82704148
JVASP-11382,Rb2 Nb1 Cu1 Se4,2.0108,1.8044,19.82685683
JVASP-50903,Pb2 O3,1.0693,0.7754,19.80981233
JVASP-10475,K2 Nb1 Cu1 Se4,1.9863,1.7482,19.80958454
JVASP-24944,Sm3 Cu1 Sn1 S7,2.147,2.147,19.80860253
JVASP-10570,K1 Sb2 Se4,1.9976,1.7723,19.78302943
JVASP-1699,Th1 Sb1 Rh1,1.0223,0.7495,19.77187941
JVASP-2943,Ta1 Cu3 Te4,1.8865,1.5513,19.7620213
JVASP-28972,Mo1 W1 Se2 S2,0.6104,0.6104,19.75777942
JVASP-3045,K2 Ag1 P1,2.1353,2.1085,19.73128295
JVASP-22545,Li1 Y1 Se2,2.15,2.15,19.7285444
JVASP-7685,Cu2 Hg1 Ge1 S4,0.6089,0.6089,19.70581876
JVASP-36462,Ca3 Bi1 As1,0.6092,0.6092,19.70581876
JVASP-36844,Ag1 Rh1 O2,0.9506,0.7078,19.69166376
JVASP-57037,Ho1 Cu1 S2,2.1207,2.0618,19.66968527
JVASP-8247,Ni1 O2,0.9611,0.7128,19.66535025
JVASP-30559,Ni1 O2,0.9611,0.7128,19.66535025
JVASP-890,Ge1,0.6063,0.6063,19.65212445
JVASP-36243,Rb1 Cu1 O1,0.6065,0.6065,19.65212445
JVASP-7635,Y1 S1 F1,2.1537,2.1537,19.65124896
JVASP-8804,Ag3 Au1 S2,2.1557,2.1557,19.65124896
JVASP-54774,Sb1 H1 O3,2.1526,2.1526,19.65124757
JVASP-26728,Rb1 Au1 S2 O8,2.105,2.0178,19.62750544
JVASP-24633,Bi2 S1 O2,1.9832,1.7284,19.61419774
JVASP-12429,Li2 Pb1 O3,2.1343,2.0974,19.61405382
JVASP-31950,P1 Br7,2.1532,2.1497,19.611835
JVASP-4110,Tl2 Pd1 Cl4,1.3734,0.9382,19.60740227
JVASP-11117,Pr1 Lu1 Se3,1.5852,1.1334,19.59628721
JVASP-31799,Ru1 F6,0.6233,0.6099,19.58308736
JVASP-29559,Fe1 P4,0.83,0.6838,19.57157898
JVASP-55278,Sr3 Dy1 Rh1 O6,2.1371,2.0954,19.55833814
JVASP-5644,Ge1 As1 Se1,2.1346,2.0926,19.55486015
JVASP-32340,V1 Cl3 O1,0.6215,0.6086,19.55273159
JVASP-35385,Rb2 Np1 O4,2.0532,1.8831,19.53832817
JVASP-29246,Th6 Co1 Br15,0.6544,0.613,19.53484133
JVASP-29391,Cu1 Bi1 S1 Cl2,0.651,0.6126,19.52437263
JVASP-35840,Ce1 O2,2.026,1.8183,19.52297088
JVASP-3498,Cd1 In2 Se4,2.1609,2.1609,19.49159359
JVASP-22531,Bi2 S1 O2,1.989,1.7315,19.47611636
JVASP-82,Zr1 S2,1.6301,1.1723,19.46341714
JVASP-55597,In1 Ag1 P2 S6,2.0808,1.9441,19.46003338
JVASP-5146,In1 Ag1 P2 S6,2.0808,1.9441,19.46003338
JVASP-2029,I1 Br1,2.1274,2.0638,19.45728089
JVASP-60798,B1,2.0829,1.9459,19.4562258
JVASP-5194,Sb1 Se1 I1,2.0968,1.9804,19.45470404
JVASP-30691,Bi1 F5,1.2247,0.8476,19.42003795
JVASP-36899,K1 Ge1 Cl3,2.1653,2.1653,19.40954998
JVASP-9928,Bi1 F5,1.2283,0.8497,19.40091196
JVASP-13836,Na2 Li1 N1,1.2775,0.8843,19.39139038
JVASP-3237,Sc1 Tl1 S2,1.8273,1.4281,19.38573936
JVASP-49916,Tb2 Pt2 O7,1.8999,1.5506,19.35383116
JVASP-15758,Na2 Li1 N1,1.2732,0.8796,19.33268001
JVASP-56190,Cu1 I1,2.1706,2.1706,19.32785252
JVASP-59055,Li1 Sb3 O8,2.1677,2.1677,19.32785252
JVASP-12968,Ga2 Te1 O6,2.1685,2.1685,19.32785235
JVASP-3306,Si4 P4 Ru1,1.9987,1.7408,19.3149996
JVASP-34239,Li4 C1 O4,0.7427,0.6343,19.31139002
JVASP-3684,K2 Pt1 Cl6,2.1703,2.1678,19.30037339
JVASP-29315,V2 O5,2.0016,1.7464,19.29934822
JVASP-2433,Ca4 P2 O1,2.0919,1.9559,19.27628154
JVASP-22592,Cu2 W1 S4,1.9779,1.6956,19.25682955
JVASP-1432,Na1 Tl1 O2,2.1356,2.0678,19.25541084
JVASP-11433,Dy2 Cd1 S4,2.1725,2.1725,19.25255555
JVASP-8184,Ga1 P1,2.1751,2.1751,19.25255555
JVASP-32634,Sb1 Cl1 O2 F6,2.174,2.1737,19.24923327
JVASP-12541,Sb1 I3 Cl8,2.1403,2.0784,19.24845927
JVASP-26752,Pr3 Cu1 Si1 S7,2.1658,2.1504,19.23910568
JVASP-2610,K2 Ag1 As1,2.144,2.0872,19.23334346
JVASP-49848,Ho1 Tl1 O2,2.1565,2.1253,19.22336208
JVASP-20757,Na1 B15,0.6645,0.6089,19.19210254
JVASP-41154,Na2 Tl1 Bi1,0.746,0.6335,19.18953392
JVASP-32441,Sb1 S2 N1 Cl6,2.1319,2.0509,19.17681497
JVASP-3783,Ca3 As1 Br3,2.176,2.176,19.17316427
JVASP-22708,Rb4 I2 O1,2.1776,2.1776,19.17316417
JVASP-10544,K2 Na1 Ga1 As2,2.1591,2.122,19.15725674
JVASP-8190,Cu2 W1 S4,1.9084,1.5542,19.15706638
JVASP-8784,Sr1 Ga2 Te4,1.3736,0.9245,19.15615899
JVASP-1177,Ga1 Sb1,0.5935,0.5935,19.1407799
JVASP-20099,Ga1 Sb1,0.5935,0.5935,19.1407799
JVASP-3321,Zn1 Ga2 Te4,2.0044,1.7413,19.1325277
JVASP-30460,Bi1 S2,2.0696,1.8867,19.1259377
JVASP-1363,Tm1 N1,1.7129,1.2559,19.12216955
JVASP-2733,Li2 Ce1 As2,0.6315,0.604,19.11521043
JVASP-16306,Ca1 Te1,0.5923,0.5923,19.09031974
JVASP-10976,Er1 Cu1 S2,2.1417,2.0709,19.07277888
JVASP-36774,H1 Au1 O2,2.0235,1.7787,19.07053935
JVASP-28379,Mo1 S2,1.7956,1.3644,19.07011948
JVASP-10562,Rb2 Nb1 Ag1 Se4,2.1355,2.0514,19.06629989
JVASP-34244,Li4 C1 O4,2.1101,1.9803,19.04053337
JVASP-3885,Tl2 Pt1 Cl6,2.1606,2.1189,19.02731814
JVASP-52490,Zn1 Cu2 O4,0.7578,0.6364,19.02311649
JVASP-4343,S5 N6,2.164,2.1285,19.0167272
JVASP-23439,Te1 O3,2.1866,2.1866,19.01112656
JVASP-9425,Mg1 Sb2 O6,2.1842,2.1842,19.01112653
JVASP-2577,Rb1 Au1 O2,2.1119,1.9785,18.99696889
JVASP-4855,Er1 Ag1 P2 Se6,2.122,2.0043,18.97094341
JVASP-9867,Zn1 Ag2 O4,0.9337,0.685,18.95591284
JVASP-30186,Ti1 Sn1 O3,2.0918,1.9295,18.94974773
JVASP-17700,In1 N1,0.5888,0.5888,18.93911164
JVASP-36659,Zn1 Cd1 Se2,2.1892,2.1892,18.92729644
JVASP-36785,H1 Au1 O2,1.5837,1.1048,18.91374344
JVASP-13305,Zn2 Pt1 O4,1.7935,1.3524,18.89811562
JVASP-36847,Pb1 Au1 O2,1.2906,0.8765,18.88030236
JVASP-8756,Ag2 S1,2.0981,1.9403,18.87872745
JVASP-1981,Zr1 Cl2,1.4317,0.9616,18.8741248
JVASP-9225,Mg1 Sb2 O6,2.1938,2.1938,18.85091744
JVASP-29475,Sn1 S1,1.6391,1.1552,18.84876415
JVASP-35600,Zn1 Cu2 Sn1 S4,0.5852,0.5852,18.84059275
JVASP-52491,Li1 Ag1 F4,0.5854,0.5854,18.84059275
JVASP-8763,Ag2 S1,2.0995,1.9355,18.80262315
JVASP-8490,In1 Se1,1.911,1.5367,18.79325153
JVASP-8179,Sn1 S1,0.5847,0.5847,18.79078507
JVASP-12900,Tl1 I3,2.1563,2.086,18.78540818
JVASP-8098,Ag1 N1 O2,2.0338,1.7804,18.78528066
JVASP-125,Pt1 S2,1.4767,0.9978,18.76194608
JVASP-22642,Cu2 Hg1 I4,0.6798,0.6013,18.7523984
JVASP-7670,Ba1 Se1,2.1011,1.9329,18.75107804
JVASP-57560,Ag2 S1,2.1003,1.9282,18.70316854
JVASP-24595,Y6 U1 O12,2.1973,2.1895,18.68559304
JVASP-3207,Cu1 B1 S2,2.2021,2.2021,18.68520867
JVASP-7791,U1 Cd1 O4,2.1223,1.9803,18.68229204
JVASP-39875,Ir1 Cl3,0.589,0.5833,18.65675017
JVASP-54,Mo1 S2,1.7925,1.3371,18.62190378
JVASP-37308,Sr1 Ga1 Sn1 H1,1.0524,0.7392,18.61090944
JVASP-8302,Sb1 F5,1.8836,1.4781,18.60529648
JVASP-36072,U1 Cd2 O5,2.2056,2.2056,18.60004555
JVASP-8562,Cu1 I1,2.2033,2.2033,18.60004555
JVASP-8701,Rb3 Br1 O1,2.203,2.203,18.60004551
JVASP-2844,K2 Te2 Pt1,1.7839,1.3234,18.59796614
JVASP-18469,Na3 Bi1,0.5785,0.5785,18.59691732
JVASP-2550,Ba1 Ag2 Ge1 S4,2.0575,1.8193,18.58446935
JVASP-9718,Ag1 P1 S3,2.0646,1.8336,18.565068
JVASP-30604,Sb1 F5,1.885,1.4755,18.50430447
JVASP-57066,Na2 Pt1 O3,2.1777,2.1153,18.49525717
JVASP-54803,Ga2 Os1,1.0562,0.738,18.49386647
JVASP-4418,P1 Pd1 Se1,0.5786,0.5768,18.49116194