JID,Formula,Dir.gap (eV),Indir. gap (eV),Eff (%)
JVASP-25651,Na3 Ca2 Bi1 O6,2.686,2.5994,8.759270303
JVASP-18863,Zr1 Ni1 Bi1,1.3042,0.5792,8.731556592
JVASP-64917,Be2 Fe1 W1,0.9167,0.4669,8.717610347
JVASP-30632,Sb1 N1,2.5023,1.8646,8.704659168
JVASP-8084,K1 Cu1 C2,2.5797,2.1144,8.688740489
JVASP-11076,Sn1 O2,2.7082,2.7082,8.688652464
JVASP-13345,Pr2 Cd1 S4,2.709,2.709,8.688652464
JVASP-22661,Rb2 Te1 Br6,2.6554,2.4359,8.686611846
JVASP-1783,Pr1 Cu1 O2,2.7008,2.6374,8.648759093
JVASP-8188,Si2 Mo1,0.6517,0.4164,8.638132339
JVASP-36888,Rb1 Pb1 Br3,2.7095,2.692,8.621192089
JVASP-3348,Ba1 Ag1 Te1 F1,2.7174,2.7174,8.57910652
JVASP-30754,Ti1 Zn1 Ge2 O6,2.7183,2.7183,8.57910652
JVASP-26739,Hg3 As8 S8 Br6,2.7165,2.7165,8.57910652
JVASP-9800,Zn1 Bi2 O5,0.8549,0.46,8.579073595
JVASP-7634,Ge1 Se2,2.5721,2.0553,8.570863672
JVASP-2739,Rb2 Pt1 F6,2.7171,2.7133,8.564682526
JVASP-62656,Li1 B1 H4,2.6794,2.517,8.549822215
JVASP-9426,Li1 Ta1 O3,2.7177,2.7047,8.529745187
JVASP-3567,Bi1 I1 O1,2.6528,2.3687,8.488534794
JVASP-2074,Rb1 Au1,1.976,0.9575,8.47653182
JVASP-2277,Cd1 Ga2 Se4,2.7232,2.7232,8.470403266
JVASP-33828,Lu1 I3,2.7248,2.7248,8.470403266
JVASP-36827,Ag1 Br1 O2,0.5542,0.3949,8.458091362
JVASP-35495,Tl2 Cd1 Te4,0.3683,0.3683,8.449811352
JVASP-12733,Tl1 Cl2,2.6913,2.5529,8.44771051
JVASP-30647,Ti1 Zn1 Bi2 O6,2.6397,2.3066,8.443140762
JVASP-53161,Rb1 Bi1 F3,2.7262,2.7241,8.357850987
JVASP-28460,Te2 Mo1 W2 Se4,0.3659,0.3659,8.346313522
JVASP-41051,Nd3 Si1 Ag1 S7,2.6912,2.525,8.335941273
JVASP-13822,W1 Cl4 O1,2.6973,2.555,8.33589116
JVASP-3450,Ti1 Pb1 O3,2.5274,1.8755,8.319872578
JVASP-40844,Y1 Se1 Cl1,2.662,2.3767,8.310198349
JVASP-25328,Hg1,1.4338,0.6079,8.299286444
JVASP-4885,Rb2 S5,2.7275,2.6989,8.260212888
JVASP-22736,Na1 Ca1 As1,2.7129,2.5997,8.252422344
JVASP-11611,Zn2 Cu1 As2 O8,0.375,0.3654,8.224392878
JVASP-1687,Li1 Zn1 P1,2.554,1.9278,8.184976675
JVASP-8551,Th1 Ni1 Sn1,0.4288,0.3721,8.181955558
JVASP-52227,Tb1 Bi5 O9,2.7359,2.7133,8.177569067
JVASP-7655,Nb2 O5,2.7187,2.6092,8.163455678
JVASP-53148,Al1 Sb1 O4,2.7399,2.7399,8.161994983
JVASP-13138,Tl2 Te1 Br6,2.7106,2.5736,8.160726293
JVASP-3816,P1 I3,2.7375,2.7369,8.159843792
JVASP-35971,Lu1 Cu1 S2,2.5365,1.8733,8.138113064
JVASP-22926,Ba4 Tb2 Cd3 S10,2.7327,2.6943,8.120239016
JVASP-13388,K2 Te1 Se3,2.7307,2.662,8.112477906
JVASP-9707,Ag1 C1 O2,2.7338,2.6926,8.110082967
JVASP-37079,Sm1 Tl1 Se2,2.4866,1.7235,8.100539545
JVASP-29377,Ti1 Zn1 Bi2 O6,2.6658,2.3316,8.099637197
JVASP-40800,Zr1 Sn1 Pd1,1.0076,0.476,8.097783198
JVASP-33824,Tm1 I3,2.7435,2.7435,8.05428233
JVASP-57459,Cd1 Bi1 S2 Cl1,2.7453,2.7453,8.05428233
JVASP-54443,Li1 I1 O3,2.6788,2.3947,8.046567902
JVASP-2083,Ta1 Sb1 Ru1,2.1099,1.0638,8.045941251
JVASP-8595,K2 Te1 Br6,2.6746,2.3668,8.039931075
JVASP-36793,Ag1 Pt1 O2,0.9516,0.4581,8.032284868
JVASP-9675,Ag2 C1 O3,2.5154,1.7944,8.029225873
JVASP-8592,Rb2 Te1 Br6,2.6815,2.3931,8.028791064
JVASP-57806,Ag3 S1 I1,2.5278,1.8198,7.996884385
JVASP-8088,Ag2 Pd1 O2,1.3855,0.5773,7.988744242
JVASP-16769,Sr1 Cu1 As1,0.9294,0.4525,7.977644402
JVASP-36954,In1 Sn1 Br3,2.7509,2.7509,7.940547069
JVASP-55541,Ti1 Cd1 O3,2.7493,2.7493,7.940547069
JVASP-39459,Rh2 S3,0.5615,0.387,7.940136329
JVASP-10545,K2 Ge1 Se3,2.7362,2.6477,7.938462747
JVASP-1234,Ba1 Ti1 O3,2.6328,2.1691,7.924963918
JVASP-7760,Ba1 Ti1 O3,2.6329,2.1691,7.924503551
JVASP-7642,K1 Al1 Te2,2.7212,2.5747,7.92270117
JVASP-28833,Te4 Mo1 W3 Se2 S2,0.3693,0.3589,7.909388875
JVASP-3447,Pt1 Pb1 F6,2.6544,2.2364,7.896994121
JVASP-32247,As1 I3 F6,2.7451,2.7,7.895453292
JVASP-38127,Ca6 Sn2 N1 F1,0.356,0.356,7.888361257
JVASP-56345,Li1 Mg1 V1 O4,2.6979,2.439,7.873780118
JVASP-22735,Li1 Ca1 As1,2.7001,2.4401,7.869427448
JVASP-3015,Th1 Cu2 P2,0.8807,0.4458,7.852316203
JVASP-57139,Sr1 Li2 Nb2 O7,2.6461,2.2,7.851860367
JVASP-10485,Rb2 Sn1 Se3,2.7436,2.6826,7.839454511
JVASP-110,Ba1 Ti1 O3,2.6397,2.1726,7.835785982
JVASP-2178,Na1 S1,2.7572,2.7572,7.83135167
JVASP-22612,Cr1 Cd1 F6,0.3698,0.3575,7.828115337
JVASP-16027,Ba1 Cd2 Sb2,0.3744,0.3575,7.782733706
JVASP-5254,Bi1 S1 Br1,2.7473,2.6672,7.772200521
JVASP-56283,Sr2 I1 N1,2.7635,2.7634,7.726134836
JVASP-55507,V2 Zn2 O7,2.7442,2.6469,7.711645295
JVASP-28417,Te1 W1 Se1,0.352,0.3517,7.690912142
JVASP-8082,Sr1 Ti1 O3,2.6783,2.3022,7.666405891
JVASP-30573,Cr2 O5,0.3508,0.3508,7.662316403
JVASP-22690,Ba2 H6 Os1,2.7169,2.4713,7.647153395
JVASP-12846,K2 B2 Se7,2.7513,2.6635,7.636457181
JVASP-49910,Li3 Nb3 Te1 O12,2.7634,2.7343,7.628856028
JVASP-29574,Bi1 I3,2.7725,2.7725,7.621036912
JVASP-17431,Cd1 Cu2 Sn1 Se4,0.3501,0.3501,7.617103042
JVASP-13159,Li1 Cl1 O2,2.7686,2.7661,7.612769527
JVASP-8603,Cu1 H1,2.1498,1.0724,7.605477524
JVASP-36625,Zn1 Sn1 O3,2.3438,1.348,7.565048004
JVASP-3060,K4 Be1 P2,2.7675,2.716,7.553730973
JVASP-8514,Si1 Se2,2.73,2.5077,7.546901254
JVASP-5596,P1 Se1,2.7659,2.71,7.538987134
JVASP-29885,C1,0.348,0.348,7.528474692
JVASP-2991,Ca1 Mg2 As2,2.5533,1.807,7.527355525
JVASP-7833,Sn1 Te1,1.0955,0.4822,7.520452842
JVASP-22713,K4 I2 O1,2.774,2.774,7.516811837
JVASP-3969,K3 I1 O1,2.7789,2.7789,7.516811837
JVASP-9781,Sr2 Ga1 Sb1 O6,2.7771,2.7771,7.516811837
JVASP-57456,K3 Nb3 B2 O12,2.7772,2.7772,7.516811837
JVASP-60808,Fe1 B2,0.5762,0.3825,7.503546045
JVASP-37069,Tb1 H3,0.4495,0.3617,7.484469069
JVASP-35156,K8 N1 O3,0.4073,0.3566,7.483631889
JVASP-29862,Mo2 H2 O7,2.7698,2.7276,7.481760952
JVASP-29714,Ag1 I1,2.7702,2.7245,7.470210407
JVASP-52321,Nb3 O7 F1,2.6542,2.1328,7.440600807
JVASP-57290,Na6 Pb1 O5,2.7818,2.7818,7.427322519
JVASP-62683,Tl1 B1 S2,2.7588,2.6394,7.424526244
JVASP-13262,Ca1 Pr2 S4,2.7793,2.7502,7.422322063
JVASP-13310,Ca1 Nd2 S4,2.7847,2.7825,7.420284641
JVASP-28886,Te1 W2 Se2 S1,1.0897,0.4789,7.417232077
JVASP-10481,K2 Na1 Al1 As2,2.7395,2.529,7.409256991
JVASP-32687,Co1 Sn1 C4 Cl3 O4,2.7861,2.775,7.391791117
JVASP-40171,K1 Si1 Bi1 S4,2.7498,2.5871,7.377161525
JVASP-23437,Hg1 Sb2 O6,2.6318,2.0293,7.355981851
JVASP-8194,Ca1 P3,0.3433,0.3433,7.310915758
JVASP-29023,Te6 Mo1 W3 Se2,0.3432,0.3432,7.310915758
JVASP-26736,Na1 Sr3 Bi1 O6,2.7577,2.6045,7.309406682
JVASP-17188,Zn1 O1,2.1757,1.0753,7.30633818
JVASP-1489,Nd1 Cu1 O2,2.7798,2.713,7.299902463
JVASP-12514,Bi1 S1 Cl1,2.7811,2.7404,7.297057315
JVASP-9158,As4 S5,2.7474,2.5249,7.271042676
JVASP-57094,Rb2 Sb4 S7,2.7871,2.7694,7.26925086
JVASP-4313,P1 S1,2.7645,2.6236,7.253997985
JVASP-36000,Sn1 S2,2.7947,2.7947,7.226881994
JVASP-29550,C3 N4,2.7962,2.7962,7.226881994
JVASP-28440,Yb1 Cl3,2.7458,2.5105,7.226015664
JVASP-1372,Al1 As1,2.6998,2.2763,7.222035729
JVASP-13322,Ba1 Pr2 S4,2.774,2.682,7.218098963
JVASP-29183,Te4 Mo3 W1 Se2 S2,0.3766,0.3474,7.201477744
JVASP-10970,Sb1 S2 N1 F6,2.7937,2.7853,7.20084603
JVASP-26744,Rb2 Ag2 Ge1 S4,2.7738,2.6719,7.185971355
JVASP-25255,Si1,1.0527,0.4656,7.172514122
JVASP-11507,Mo1 O3,2.7832,2.703,7.170651887
JVASP-29769,Ge1 Pb1 S3,2.7637,2.5972,7.168185122
JVASP-8579,Hg1 I2,2.7658,2.593,7.147059252
JVASP-8387,Te1 W1 O6,2.6776,2.1555,7.142302047
JVASP-42812,Li3 V1 O3 F2,2.7852,2.6927,7.131292407
JVASP-8397,Sn1 S2,2.7992,2.7992,7.125440871
JVASP-57061,Cd2 Si1 O4,2.8023,2.8023,7.125440871
JVASP-11397,Sr1 Mg1 Ge1,0.3386,0.3386,7.102726455
JVASP-8072,Ni1 P2,0.5842,0.3766,7.098776799
JVASP-30507,Ag1 Bi1 O2,2.7186,2.3267,7.092647803
JVASP-2745,Ca1 Pt1 F6,2.8024,2.783,7.066310385
JVASP-3954,S1 Br1,2.7793,2.6384,7.059389204
JVASP-12244,Ba2 Ca1 Mo1 O6,2.7931,2.7341,7.04404064
JVASP-25116,C1,1.0849,0.4679,7.017609391
JVASP-29490,Sb2 O3,2.7891,2.6801,6.981822115
JVASP-2961,Rb1 Au3 Se2,2.7242,2.3248,6.978282601
JVASP-57140,Na1 Sb1 P2 S6,2.7907,2.6798,6.975838588
JVASP-9884,Mg1 Cu2 O4,0.6006,0.3765,6.938938861
JVASP-3438,Li1 In1 Se2,2.8122,2.8122,6.933031045
JVASP-3183,Sr1 Cu1 S1 F1,2.8153,2.8153,6.933031045
JVASP-13292,Sm2 Cd1 S4,2.8117,2.8117,6.933031045
JVASP-54838,Sr3 Ga3 N5,2.8144,2.8144,6.933031045
JVASP-31191,Sr1 Pr2 S4,2.8175,2.8175,6.933031045
JVASP-29441,Cd1 Hg4 C6 S6 Br4 N6,2.8032,2.7373,6.924584863
JVASP-48549,V1 O2 F1,2.7898,2.6601,6.91666467
JVASP-56700,K3 V1 C1 O8,2.8068,2.7687,6.911215642
JVASP-10700,Rb1 Sb1 S2,2.8147,2.7951,6.875171567
JVASP-12969,Pd1 S1 O4,0.3331,0.3331,6.859081151
JVASP-5368,Ti1 Br4,2.8143,2.7862,6.85009673
JVASP-50518,Ti1 O2,2.8152,2.786,6.846851518
JVASP-57531,Li1 As1 O3,2.7943,2.6708,6.844203314
JVASP-24630,Hg3 Te2 Br2,2.7831,2.6002,6.842104687
JVASP-13309,Ca1 Dy2 S4,2.8224,2.8224,6.838821239
JVASP-9409,Ca1 Ti1 O3,2.8208,2.8175,6.829225867
JVASP-62921,Li1 B1 H4,2.7824,2.5932,6.821965406
JVASP-33809,Pm1 I3,2.824,2.812,6.803973742
JVASP-54956,Cu1 Cl1,2.4938,1.5254,6.783684091
JVASP-29422,In2 Ga1 Bi1 S6,2.8163,2.7606,6.768649369
JVASP-21262,Ti1 Cd1 O3,2.8242,2.7938,6.750535711
JVASP-29486,Ge1 Pb2 S4,2.8222,2.7847,6.72991781
JVASP-35776,Ba1 C2,2.8019,2.6573,6.684784848
JVASP-2382,Ga2 Hg1 S4,2.8314,2.8314,6.674668365
JVASP-8108,Pr1 Cu1 S1 O1,2.8332,2.8332,6.674668365
JVASP-8559,Tl1 Br1,2.833,2.833,6.674668365
JVASP-53358,Tb2 Yb1 S4,2.8348,2.8348,6.674668365
JVASP-20092,Cd1 O1,2.3886,1.3064,6.673064984
JVASP-35691,Sr2 S1 O1,2.8324,2.8229,6.647884014
JVASP-1393,Ga1 P1,2.7508,2.3733,6.634159181
JVASP-37114,Rb1 Sm1 Te2,2.6537,1.9493,6.63391754
JVASP-22734,K1 Nb1 O3,2.6823,2.0536,6.623954798
JVASP-30658,Mg1 Sb4 O8,2.8161,2.7085,6.615509058
JVASP-25722,K2 Sn1 Au2 S4,2.7881,2.558,6.600757619
JVASP-8316,Mn1 Al1 F5,0.361,0.3337,6.59126873
JVASP-2670,Al2 Cd1 Te4,2.7878,2.5519,6.582519209
JVASP-7706,Li1 Ga1 Si1,1.7137,0.6632,6.581110937
JVASP-3318,Zn1 Ga2 Se4,2.839,2.839,6.576098153
JVASP-64913,Ti1 Be2 Pt1,1.3501,0.5216,6.575766749
JVASP-3084,Na3 Sb1 S4,2.841,2.8407,6.575276507
JVASP-10250,Tl4 Si1 S4,2.8044,2.6236,6.574515319
JVASP-12016,Pd1 Se1 O3,0.3843,0.3372,6.57337293
JVASP-57164,Ba3 P2 S8,2.8419,2.838,6.565289649
JVASP-58988,Na3 B1 P2,2.8222,2.7277,6.564428027
JVASP-12348,Sr2 Pb1 O4,2.7779,2.4735,6.529009798
JVASP-10551,Rb3 B1 P2,2.828,2.7418,6.512027635
JVASP-9094,Ti1 O2,2.8447,2.8447,6.479656924
JVASP-8561,Ag1 I1,2.8488,2.8488,6.479656924
JVASP-50699,Li1 Nb1 Te3 O12,2.8443,2.8443,6.479656924
JVASP-34772,Li1 Br1,2.8383,2.8033,6.479099662
JVASP-7823,Tb1 Sb1 Pt1,0.3243,0.3243,6.47382948
JVASP-8032,Al1 Cu1 O2,2.6974,2.0817,6.461987896
JVASP-8259,Al1 Cu1 O2,2.6976,2.0819,6.461987896
JVASP-9282,Mg1 Sb4 O8,2.8278,2.7213,6.45393599
JVASP-5611,Sr1 Th1 Br6,2.7874,2.4985,6.415833343
JVASP-10537,K3 B1 P2,2.8315,2.7336,6.398618381
JVASP-10131,Hg2 Se1 O4,2.803,2.5637,6.396373588
JVASP-3240,Zn1 Pb1 F6,2.8509,2.8509,6.393060666
JVASP-50971,Yb1 Ti1 O3,2.8513,2.8513,6.393060666
JVASP-53178,Cu1 As2 Pb6 Cl7 O6,2.8558,2.8558,6.393060666
JVASP-5809,Mg1 P1 Se3,2.8527,2.8524,6.392262051
JVASP-44556,K1 Ti1 P1 C1 O7,2.8543,2.8497,6.38072998
JVASP-18380,Pr1 H2,2.0515,0.8711,6.369141777
JVASP-36373,Ca1 C2,2.799,2.5494,6.365005783
JVASP-12178,Li2 W1 S4,2.7557,2.3223,6.355933002
JVASP-39280,Lu1 Al3 C3,1.8766,0.7421,6.353069416
JVASP-12792,Rb2 B2 Se7,2.8362,2.7203,6.347880438
JVASP-53478,Yb1 Nd2 S4,2.8562,2.8344,6.334614003
JVASP-32735,In1 I3,2.8532,2.8295,6.329522474
JVASP-11727,Sr2 Ca1 Mo1 O6,2.8477,2.7915,6.326566679
JVASP-53034,Yb1 Dy2 S4,2.8616,2.8616,6.315443419
JVASP-25578,Hg2 Se1 O3,2.8618,2.8618,6.315443419
JVASP-36983,Tl1 In1 Cl3,2.8193,2.6376,6.311348112
JVASP-19612,Cd1 Se1,1.9426,0.7825,6.294650216
JVASP-50044,Ti1 Bi2 O5,2.8593,2.8514,6.294567197
JVASP-41032,Ba2 In1 Bi1 S5,2.7936,2.4916,6.291557257
JVASP-54582,Ag1 Pb2 Br5,2.8613,2.8493,6.283734079
JVASP-44564,Li1 Tl1 P1 H1 O3,2.8374,2.7295,6.277092958
JVASP-13799,Ca1 Th1 Br6,2.8225,2.628,6.274198514
JVASP-28811,Mo3 W1 Se8,0.6066,0.3642,6.245952749
JVASP-13364,Li5 N1 Cl2,2.8579,2.8294,6.24015526
JVASP-1375,Li3 N1,2.7795,2.3841,6.234044281
JVASP-1957,Ag1 I1,2.8684,2.8684,6.229800344
JVASP-11699,Er1 V1 O4,2.8662,2.8662,6.229800344
JVASP-52585,Ag1 I1,2.8698,2.8698,6.229800344
JVASP-56914,K2 Na1 B1 P2,2.8257,2.6363,6.216751532
JVASP-29437,Sm2 Ti3 Bi2 O12,2.8152,2.5695,6.208264709
JVASP-25779,Tl1 Bi1 P2 S7,2.8545,2.7829,6.201104388
JVASP-14705,Yb1 B6,0.1501,0.1501,6.194791311
JVASP-34184,Mg2 V1 O4,0.3615,0.3264,6.187758995
JVASP-15366,Tl1 Ni2 Se2,0.3594,0.329,6.185194992
JVASP-25896,Ba1 Nd2 Pt1 O5,2.863,2.81,6.175437577
JVASP-5392,Nb1 Cl3 O1,2.8397,2.6943,6.17320561
JVASP-1504,Na1 Ta1 N2,2.752,2.2363,6.156666445
JVASP-33602,Mo1 H2 Cl2 O3,2.8453,2.7254,6.153089677
JVASP-41962,Ba2 Ga2 O5,2.7193,2.0984,6.152499912
JVASP-39536,Zn1 Cd1 S2,2.8728,2.8728,6.136249571
JVASP-40202,Ca2 Sn1 S4,2.8764,2.8764,6.136249571
JVASP-33847,Sm1 I3,2.8732,2.8732,6.136249571
JVASP-12592,Ca2 H1 N1,2.8646,2.8263,6.130236884
JVASP-22639,Si1 Se2,2.8273,2.6056,6.124363128
JVASP-22683,Y1 Ag1 Se2,2.3745,1.2102,6.117700911
JVASP-46786,Mn3 O2 F2,0.3329,0.3194,6.109603935
JVASP-58916,Tl1 B1 S3,2.8391,2.6472,6.044417399
JVASP-35165,Li2 P1 N1 O2,2.8609,2.7536,6.032024162
JVASP-8704,Bi2 C1 O5,2.8609,2.7527,6.029644558
JVASP-29057,Te4 Mo1 W3 Se2 S2,0.8417,0.402,6.028348849
JVASP-57264,Ge1 Pb3 O5,2.8827,2.857,6.021613565
JVASP-8810,Ti1 O2,2.811,2.4746,6.017657374
JVASP-104,Ti1 O2,2.8111,2.4742,6.016171937
JVASP-50620,Li1 Co1 S2,0.5836,0.3552,6.015808886
JVASP-34052,Te1 Mo1 S1,1.318,0.4963,6.005924164
JVASP-30264,V1 O2 F1,2.8839,2.8739,6.005009312
JVASP-1240,Li1 Nb1 O3,2.8525,2.6985,5.98029288
JVASP-4657,Ga1 S1,2.824,2.5243,5.969046243
JVASP-4008,K4 Br2 O1,2.8937,2.8937,5.954700934
JVASP-5329,Xe1 O2 F2,2.885,2.8482,5.938086146
JVASP-11504,Ba2 Ti3 O8,2.6286,1.7171,5.925378152
JVASP-12728,Hg2 P2 S7,2.8433,2.6067,5.920639655
JVASP-10889,Te2 O5,2.8634,2.743,5.916888446
JVASP-36636,Sr1 Ge1 O3,2.6982,1.9403,5.90052388
JVASP-29468,Hg3 As1 S4 Cl1,2.8477,2.6273,5.879500921
JVASP-35715,Er1 H3,0.4524,0.3331,5.879423529
JVASP-53575,Pr2 Pb1 S4,2.8512,2.6575,5.87392835
JVASP-8169,Ga1 N1,2.9033,2.9033,5.871891803
JVASP-32793,Nb1 As1 P1 Cl13,2.9012,2.8981,5.864393375
JVASP-29157,Te1 Mo1 W1 Se2 S1,0.1459,0.1459,5.854314593
JVASP-28474,Te2 Mo1 W2 Se2 S2,0.0147,0.0147,5.849813941
JVASP-28537,Te2 Mo1 W2 Se2 S2,0.0577,0.0577,5.848062324
JVASP-28942,Te1 Mo1 W1 Se2 S1,0.2455,0.2455,5.844852259
JVASP-28573,Te4 W3 Se2,0.2158,0.2158,5.844484963
JVASP-29184,Te6 Mo3 W1 Se2,0.0879,0.0879,5.843496276
JVASP-28418,Te2 Mo1 W1 Se2,0.3046,0.3046,5.843193043
JVASP-28504,Te4 Mo2 W1 Se2,0.0461,0.0461,5.84208589
JVASP-28826,Te2 Mo1 W1 S2,0.0381,0.0381,5.842020983
JVASP-28852,Te1 W1 Se1,0.2455,0.2455,5.841983994
JVASP-28480,Te2 Mo2 W1 Se4,0.2903,0.2903,5.841806351
JVASP-26125,Yb1 Mg1 Ge1,0.2801,0.2801,5.841799611
JVASP-29194,Te3 Mo1 W1 Se1,0.101,0.101,5.84178706
JVASP-28484,Te4 Mo3 Se2,0.0536,0.0536,5.841769569
JVASP-28767,Te2 Mo3 W1 Se6,0.16,0.16,5.84176948
JVASP-28509,Te2 Mo2 W1 Se4,0.1283,0.1283,5.841769464
JVASP-28577,Te4 W3 S2,0.0431,0.0431,5.841769463
JVASP-13112,Ca2 Pb1,0.161,0.161,5.841769456
JVASP-28494,Te2 Mo1 W2 Se2 S2,0.0065,0.0065,5.841769455
JVASP-28512,Te4 Mo2 W1 Se2,0.0603,0.0603,5.841769454
JVASP-7632,Cd1 Sn1 Sb2,0.0894,0.0894,5.841769454
JVASP-7676,Ge1 Se1,0.2042,0.2042,5.841769454
JVASP-1189,In1 Sb1,0.1343,0.1343,5.841769454
JVASP-1008,Sn1,0,0,5.841769454
JVASP-25151,Si1,0.0664,0.0664,5.841769454
JVASP-9254,Ca1 Ti1 O2,0.2096,0.2096,5.841769454
JVASP-7824,Tm1 Sb1 Pt1,0.1337,0.1337,5.841769454
JVASP-7829,Dy1 Sb1 Pt1,0.2893,0.2893,5.841769454
JVASP-7830,Er1 Sb1 Pt1,0.208,0.208,5.841769454
JVASP-7835,Ho1 Sb1 Pt1,0.2526,0.2526,5.841769454
JVASP-7860,Sn1 Te1,0.2923,0.2923,5.841769454
JVASP-15033,Hg1 Te1,0,0,5.841769454
JVASP-15215,Mg1 Ag1 As1,0,0,5.841769454
JVASP-15921,Lu1 Sb1 Pt1,0.0132,0.0132,5.841769454
JVASP-16442,Dy1 Pb1 Au1,1.00E-04,1.00E-04,5.841769454
JVASP-16639,Yb3 Pb1 O1,0.0312,0.0312,5.841769454
JVASP-17178,La1 N1,0.1445,0.1445,5.841769454
JVASP-17432,Cu2 Sn1 Hg1 Se4,0.0747,0.0747,5.841769454
JVASP-17580,In1 Sb1,0.1343,0.1343,5.841769454
JVASP-18611,Ho1 Pb1 Au1,0,0,5.841769454
JVASP-18621,Tb1 Pb1 Au1,0,0,5.841769454
JVASP-18633,Dy1 Bi1 Pt1,0,0,5.841769454
JVASP-18634,Er1 Bi1 Pt1,0,0,5.841769454
JVASP-18635,Ho1 Bi1 Pt1,0,0,5.841769454
JVASP-18817,Ca3 Sb1 N1,0,0,5.841769454
JVASP-19850,Hg1 Se1,0,0,5.841769454
JVASP-20496,Ca1 As3,0.007,0.007,5.841769454
JVASP-14601,Sn1,0,0,5.841769454
JVASP-54581,Y1 Pb1 Au1,0,0,5.841769454
JVASP-8219,Ca2 Sb1,0.1491,0.1491,5.841769454
JVASP-35668,Tl1 N1,0,0,5.841769454
JVASP-35696,Ti2 Mn1 In1,0.0567,0.0567,5.841769454
JVASP-35727,Ga2 Bi1 As1,0,0,5.841769454
JVASP-35769,Al1 Bi1,0.0877,0.0877,5.841769454
JVASP-35987,In1 Bi1,0,0,5.841769454
JVASP-36123,In1 Sb1,0.1419,0.1419,5.841769454
JVASP-36138,Tl1 As1,0,0,5.841769454
JVASP-36140,Tl1 N1,0,0,5.841769454
JVASP-36255,Na1 Cu1 O1,0,0,5.841769454
JVASP-36369,Pr1 N1,0.2343,0.2343,5.841769454
JVASP-36449,Sr3 Bi1 P1,0.0368,0.0368,5.841769454
JVASP-36453,Sr3 Sb1 N1,0,0,5.841769454
JVASP-36454,Sr3 Sb1 P1,0.2803,0.2803,5.841769454
JVASP-36456,Sr3 As1 N1,0,0,5.841769454
JVASP-36458,Sr3 Sb1 As1,0.1852,0.1852,5.841769454
JVASP-36485,Ba3 Bi1 Sb1,0.2275,0.2275,5.841769454
JVASP-36486,Sr3 Bi1 Sb1,0.1327,0.1327,5.841769454
JVASP-36494,Ca3 Bi1 As1,0.1513,0.1513,5.841769454
JVASP-36497,Sr3 Bi1 Sb1,0.277,0.277,5.841769454
JVASP-36504,Ba3 Bi1 P1,0.2768,0.2768,5.841769454
JVASP-36505,Ba3 Sb1 As1,0.2843,0.2843,5.841769454
JVASP-36506,Ba3 Bi1 As1,0.1374,0.1374,5.841769454
JVASP-36510,Ca3 Bi1 Sb1,0.2765,0.2765,5.841769454
JVASP-36512,Ca3 Bi2,0.0283,0.0283,5.841769454
JVASP-36513,Ba3 Bi2,0.0791,0.0791,5.841769454
JVASP-39732,Yb3 Si1 O1,0.1643,0.1643,5.841769454
JVASP-40782,Ca1 Ni1 Te1,0,0,5.841769454
JVASP-40783,Al1 V1 Pt1,0,0,5.841769454
JVASP-28464,Te4 W3 S2,0.0009,0.0009,5.841769454
JVASP-28471,Te2 W3 Se2 S2,0.1357,0.1357,5.841769454
JVASP-28651,Te2 Mo3 W1 Se4 S2,0.1052,0.1052,5.841769454
JVASP-29046,Te2 Mo1 W1 S2,0.1873,0.1873,5.841769454
JVASP-8366,Ca3 Sb1 N1,0,0,5.841769454
JVASP-50085,Ti1 O1,0.0002,0.0002,5.841769454
JVASP-52240,Li4 Cu1 F7,0.0143,0.0143,5.841769454
JVASP-54904,Sr3 Al2 Ge4,0.1699,0.1699,5.841769454
JVASP-59671,Pb1 O2,0.1142,0.1142,5.841769454
JVASP-302,Sn1 Se1,0.1322,0.1322,5.841769454
JVASP-28575,Te4 Mo1 W2 S2,0.0368,0.0368,5.841769454
JVASP-16201,Mg1 Rh1 F6,0.2027,0.2027,5.841769421
JVASP-29007,Te2 Mo1 W1 Se1 S1,0.1871,0.1871,5.841768241
JVASP-23185,Y2 Be2 Fe1 Si2 O10,0.1663,0.1663,5.841765274
JVASP-28515,Te2 Mo1 W2 S4,0.0255,0.025,5.839899798
JVASP-37155,Na1 Sm1 Te2,2.6678,1.8186,5.832143216
JVASP-28556,Te4 Mo3 S2,0.0904,0.0902,5.83065166
JVASP-28501,Te4 Mo2 W1 S2,0.0634,0.0632,5.83065166
JVASP-28462,Te4 Mo1 W2 Se2,0.1568,0.1565,5.825519029
JVASP-8359,Al1 Cr1 F5,0.002,0.0015,5.8140468
JVASP-10001,Li2 Zr1 Te1 O6,2.8829,2.7748,5.81344774
JVASP-38092,Tl2 In1 Ga1 F6,2.9039,2.9039,5.789829018
JVASP-54873,Tl1 I1,2.9058,2.9054,5.78888472
JVASP-11058,Mg1 Co2 O4,0.2019,0.2009,5.787023682
JVASP-2319,Ba1 Pd1 S2,0.0614,0.0603,5.781532156
JVASP-52430,K4 Na2 Fe1 H3 F12,0.0015,0.0012,5.779966975
JVASP-54553,Li1 Nb1 W1 O6,2.9038,2.8824,5.738919007
JVASP-40493,Ca1 Bi1 O3,0.1503,0.1484,5.737710003
JVASP-24625,P1 I1 Cl6,2.9007,2.8447,5.736431566
JVASP-57803,Pb1 Se2 O6,2.8579,2.6374,5.733170929
JVASP-54921,Ge3 N4,2.9049,2.881,5.732970131
JVASP-36613,Si1 Hg1 O3,2.3104,1.0733,5.725080745
JVASP-8823,Cu1 C1 N1,2.8531,2.5961,5.704389471
JVASP-9374,Zn1 Ge1 N2,2.9133,2.9133,5.704116032
JVASP-12971,Ti4 Bi2 O11,2.8558,2.598,5.702241495
JVASP-29310,Ce1 P3 H8 O7,0.0097,0.0092,5.701852577
JVASP-36762,Ag1 Bi1 O2,2.828,2.4436,5.659259804
JVASP-11194,K3 Ge1 Se3,2.9081,2.8527,5.658028119
JVASP-15879,Ca2 As1,0.0414,0.0378,5.644994842
JVASP-8569,Ga1 Bi1 O3,2.7971,2.2777,5.619251337
JVASP-13321,Ca1 Sm2 S4,2.9177,2.9177,5.615228015
JVASP-26767,Ba1 Sn1 Hg1 S4,2.9185,2.9185,5.615228015
JVASP-4249,Ga1 I3,2.9241,2.9241,5.615228015
JVASP-3990,Er1 Se1 I1,2.9218,2.9213,5.614076471
JVASP-50852,Zr1 Ti1 O4,2.9178,2.9163,5.611780326
JVASP-15230,K1 Te1 Au1,0,-0.0043,5.606869446
JVASP-39190,Na2 Cr1 H2 F8,0.1599,0.1566,5.59723083
JVASP-53535,Sm2 Pb1 S4,2.876,2.6618,5.589399617
JVASP-9253,Ca1 Sn1 O2,2.883,2.6857,5.588193864
JVASP-18604,Er1 Pb1 Au1,0,-0.0054,5.547042392
JVASP-53341,Bi2 O3,2.7356,1.9845,5.539797358
JVASP-8256,Ti1 O2,2.8855,2.6863,5.532788698
JVASP-35194,Zn1 Ge1 O3,2.9306,2.9306,5.529212868
JVASP-57075,Cd1 Hg2 S1 O6,2.8922,2.7181,5.526650943
JVASP-33801,Sb2 H8 Pt1 O4 F12,2.9302,2.924,5.515232861
JVASP-25888,Ta2 Sn1 O6,2.9302,2.9215,5.509585757