JID,Formula,Dir.gap (eV),Indir. gap (eV),Eff (%)
JVASP-8167,Zr1 S1 O1,1.3337,1.3337,33.98150182
JVASP-2235,K1 Sn1 As1,1.3386,1.3386,33.98110225
JVASP-2322,Dy1 Ag1 Te2,1.3398,1.3398,33.97637192
JVASP-12747,Na1 Ag3 O2,1.3466,1.3466,33.94340932
JVASP-3408,In2 Hg1 Te4,1.349,1.349,33.9357672
JVASP-28400,Te2 W1,1.3508,1.3508,33.93263484
JVASP-4954,Rh1 O2 F6,1.3571,1.3571,33.9301703
JVASP-19122,Tm2 S3,1.3674,1.3674,33.92462858
JVASP-14262,Tm2 S3,1.3674,1.3674,33.92462858
JVASP-2700,Th1 Se1 O1,1.329,1.329,33.92402589
JVASP-12474,Hg3 Cl2 O2,1.3668,1.3668,33.92391682
JVASP-12949,K2 Ti1 S3,1.3438,1.3426,33.91702992
JVASP-1696,Ba1 Li1 As1,1.3701,1.3701,33.90263626
JVASP-12735,Li1 Ag3 O2,1.373,1.373,33.88795307
JVASP-31158,Mg1 In2 Te4,1.3791,1.3791,33.8806129
JVASP-14049,K1 Au1 Br4,1.327,1.327,33.85862944
JVASP-59035,K1 Au1 Br4,1.327,1.327,33.85862944
JVASP-1183,In1 P1,1.3874,1.3874,33.84688182
JVASP-266,In1 P1,1.3874,1.3874,33.84688182
JVASP-2520,Ca1 Cd2 As2,1.1421,1.1421,33.83127704
JVASP-10194,Th1 Se2,1.148,1.148,33.83071629
JVASP-30380,Nb1 V3 O10,1.3886,1.3886,33.8304878
JVASP-4050,Ca1 Mg2 Bi2,1.1388,1.1388,33.8282557
JVASP-3996,W1 Br6,1.1405,1.1405,33.82769582
JVASP-8582,Cu1 Br1,1.1372,1.1372,33.82575447
JVASP-36467,Ca3 Sb1 P1,1.1575,1.1575,33.8193333
JVASP-36959,Li1 Sn1 Cl3,1.1575,1.1575,33.8193333
JVASP-36448,Sr3 N2,1.1583,1.1583,33.81743976
JVASP-8211,Tl1 Ga1 Se2,1.1585,1.1585,33.81743975
JVASP-3201,Y1 Ag1 Te2,1.1622,1.1622,33.8125939
JVASP-8071,Ga1 Cu1 Se2,1.3915,1.3915,33.81127379
JVASP-28503,Mo2 W1 Se4 S2,1.1462,1.1456,33.80556295
JVASP-28909,Mo1 W3 Se8,1.3833,1.3809,33.8035859
JVASP-5824,Ta3 S1 Br7,1.1673,1.1673,33.80301098
JVASP-10145,Li2 Ti1 F6,1.1722,1.1722,33.78991019
JVASP-35067,K1 Mg1 Bi1,1.3649,1.3604,33.77422412
JVASP-28457,Te2 Mo1,1.1798,1.1798,33.7624445
JVASP-30498,Hf1 Te1 Se4,1.1221,1.1221,33.75943838
JVASP-36015,Hf1 C1,1.1211,1.1211,33.75422556
JVASP-39508,K1 Y1 Sn1,1.1218,1.1218,33.75422556
JVASP-41734,Ta1 Tl1 O3,1.1852,1.1852,33.74431957
JVASP-1174,Ga1 As1,1.3207,1.3207,33.72839832
JVASP-37174,Na3 N1,1.3213,1.3213,33.72839832
JVASP-28461,W3 Se2 S4,1.1217,1.1209,33.72017629
JVASP-31902,Se2 N1 Cl3,1.1918,1.1918,33.71477289
JVASP-36461,Ca3 Sb1 As1,1.1157,1.1157,33.68698194
JVASP-7656,Ba1 Cu2 Se2,1.1145,1.1145,33.67547943
JVASP-34477,K2 Th1 Cu2 S4,1.4029,1.4029,33.64803057
JVASP-28520,Mo1 W2 Se2 S4,1.3403,1.3306,33.64518584
JVASP-36472,Sr3 As1 N1,1.2056,1.2056,33.64380253
JVASP-12460,Cl1 O3,1.3147,1.3147,33.63780456
JVASP-8185,Ga1 As1,1.3135,1.3135,33.63780456
JVASP-8141,Sr1 Zn2 As2,1.1129,1.1129,33.63422658
JVASP-2979,Sr1 Ti1 N2,1.2078,1.2078,33.63028228
JVASP-34132,Te1 Mo1 S1,1.2079,1.2079,33.63028228
JVASP-1103,Te1 Pb1,1.4049,1.4049,33.62732956
JVASP-49748,Li8 Ti1 S6,1.2116,1.2116,33.60974949
JVASP-10961,Li1 Au1 F4,1.1946,1.1921,33.60086429
JVASP-36879,Tl1 Ge1 Br3,1.2135,1.2135,33.59643729
JVASP-2415,Cd1 Sn1 P2,1.2146,1.2146,33.58910881
JVASP-36471,Sr3 P1 N1,1.3102,1.3102,33.56147895
JVASP-57049,K6 Cu1 Si2 O8,1.1375,1.1313,33.56061307
JVASP-2217,Hg2 Ge1 Se4,1.4127,1.4127,33.52186064
JVASP-11166,Cd1 Rh2 O4,1.2262,1.2262,33.51951269
JVASP-50846,Sr2 Li2 Nb4 O13,1.4152,1.4152,33.49927642
JVASP-61120,Al2 Hg1 Se4,1.3738,1.3619,33.49201447
JVASP-28409,Te2 Mo1,1.2293,1.2292,33.49012425
JVASP-8121,Ca3 As1 N1,1.4162,1.4162,33.47665612
JVASP-7665,Sr1 Te1,1.2336,1.2336,33.46818921
JVASP-13803,Tl1 Ag1 Se1,1.2335,1.2335,33.46818921
JVASP-38110,Rb2 Br1 Cl6 F1,1.234,1.234,33.46257156
JVASP-36464,Ca3 P2,1.2341,1.2341,33.46257156
JVASP-3204,Ho1 Ag1 Te2,1.3027,1.3027,33.46167299
JVASP-36926,In1 Sn1 Br3,1.4159,1.4154,33.4610547
JVASP-38128,K2 Br1 Cl6 F1,1.2292,1.2281,33.45262131
JVASP-22657,Li1 Mg1 Bi1,1.1056,1.1056,33.43473613
JVASP-9398,Mg1 Rh2 O4,1.4215,1.4215,33.41180841
JVASP-22586,Rb2 Ni1 F6,1.1528,1.1425,33.40217565
JVASP-25871,Rb2 Ni1 F6,1.1043,1.1043,33.40031271
JVASP-7686,Sn1 Hg2 Se4,1.2444,1.2444,33.38669602
JVASP-2250,Tb1 Ag1 Te2,1.2973,1.2973,33.38011014
JVASP-1112,Pb1 S1,1.2978,1.2978,33.38011014
JVASP-254,Pb1 S1,1.2978,1.2978,33.38011014
JVASP-40306,Sr2 Cd1 As2,1.4251,1.4251,33.36563777
JVASP-5863,W1 Br4 O1,1.4235,1.4235,33.36563777
JVASP-51361,Ho1 H3,1.2468,1.2468,33.36554548
JVASP-8766,Nd2 O3,1.4145,1.4102,33.3637332
JVASP-40204,Ca1 Sn1 S3,1.2497,1.2497,33.34514493
JVASP-3951,Rb2 Pd1 Br6,1.3609,1.3433,33.33924118
JVASP-36406,C1 N2,1.3892,1.3719,33.2677785
JVASP-4331,Na3 As1,1.2885,1.2885,33.26515213
JVASP-2238,K1 Sn1 Sb1,1.1227,1.1109,33.25975407
JVASP-32744,Pd1 Se6 Br2,1.2608,1.2608,33.25966379
JVASP-28402,Mo1 W1 Se4,1.2874,1.2874,33.25699428
JVASP-8055,Ba1 Cu2 S2,1.2625,1.2625,33.25526079
JVASP-35401,Rb2 Pd1 Cl4,1.3617,1.3414,33.24797753
JVASP-9419,Na2 Pd1 F4,1.1661,1.1523,33.24733646
JVASP-13762,Pb1 S1,1.2851,1.2851,33.24549599
JVASP-36489,Sr3 Sb1 P1,1.2717,1.2717,33.24128034
JVASP-36445,Ca3 N2,1.2686,1.2686,33.23918825
JVASP-36303,Mg1 Sn1 As2,1.4345,1.4345,33.23896696
JVASP-36408,Sn1 C1,1.4341,1.4341,33.23896696
JVASP-37715,Tb1 H3,1.2797,1.2797,33.2240354
JVASP-3198,Er1 Ag1 Te2,1.2814,1.2814,33.22125487
JVASP-34483,Ag2 H3 I1 O6,1.1113,1.1016,33.19700482
JVASP-1073,Si1 Ge1,1.0966,1.0966,33.14163938
JVASP-56825,Rb2 Hg2 Pd1 Br8,1.2075,1.1947,33.1377877
JVASP-10583,K1 Hf1 Cu1 S3,1.165,1.148,33.12004663
JVASP-10138,K2 P2 Pd1,1.1636,1.1465,33.11777164
JVASP-49599,Ti2 Al2 O7,1.4437,1.4437,33.086762
JVASP-56629,V1 Ag1 O3,1.4305,1.4241,33.07932166
JVASP-12913,Sb1 I2 F6,1.3655,1.3401,33.07844703
JVASP-29963,In1 P1 F3,1.1301,1.1121,33.04258738
JVASP-13928,Pd1 Se2 Cl6,1.4424,1.4394,33.02088288
JVASP-34043,Te4 Mo3 S2,1.1463,1.1247,32.93807396
JVASP-41288,Na1 Ac1 Te2,1.459,1.459,32.88729028
JVASP-29339,Nb1 Se2 Br2,1.3716,1.3407,32.8661467
JVASP-3957,Rb2 Pt1 I6,1.1247,1.1017,32.80357042
JVASP-33932,Te4 Mo3 S2,1.1563,1.1311,32.79156381
JVASP-4630,Tl1 Pt2 S3,1.2695,1.2556,32.74025953
JVASP-53450,In4 Sn1 S8,1.4124,1.3874,32.73273592
JVASP-3087,Yb1 Zn2 As2,1.3559,1.3201,32.72578739
JVASP-33944,Te9 Mo8 S7,1.1034,1.0876,32.69314653
JVASP-13055,Ba2 Pd1 F6,1.1736,1.1463,32.68908608
JVASP-34397,Mo1 S1 Br1,1.0796,1.0793,32.6619938
JVASP-40205,Ca1 Sn1 S3,1.0782,1.0782,32.65182807
JVASP-10683,Rb1 Sb1,1.2531,1.2345,32.63769411
JVASP-12896,Pt1 I2,1.4786,1.4786,32.59709036
JVASP-44085,In3 N1 O3,1.4795,1.4795,32.59708671
JVASP-34104,Te1 Mo1 S1,1.1365,1.1067,32.58219997
JVASP-5812,Ga2 Pd1 Br8,1.1661,1.1355,32.56857933
JVASP-32108,Zr6 B1 I12,1.0893,1.0806,32.54832777
JVASP-8051,Zn1 Ge1 As2,1.0733,1.0733,32.50981116
JVASP-34704,Cu3 Te1 S3 Cl1,1.0722,1.0722,32.4912253
JVASP-28456,Mo1 W2 Se6,1.3833,1.3405,32.48059999
JVASP-22674,K2 Ni1 F6,1.0707,1.0707,32.47499191
JVASP-7661,Ba1 Li1 P1,1.4877,1.4877,32.47184208
JVASP-35621,Tl3 V1 Se4,1.4872,1.4871,32.46892667
JVASP-13023,Hf1 Te4 Cl6,1.0686,1.0686,32.42588141
JVASP-49777,Zr3 N4,1.4949,1.4949,32.39013077
JVASP-53119,Ba2 N1 F1,1.3207,1.2817,32.38315417
JVASP-13010,P2 Pd1 O6,1.1312,1.0967,32.35863946
JVASP-10118,Na1 Ag1 F4,1.4423,1.4175,32.35799817
JVASP-4080,Pd1 Se2 Br6,1.2693,1.2445,32.35108047
JVASP-11363,Rb1 Pt2 Se3,1.4762,1.4664,32.33809069
JVASP-35748,Al1 Sb1,1.5007,1.5007,32.32912914
JVASP-25000,As1 I2 F6,1.4108,1.3718,32.31086103
JVASP-8181,Na3 As1,1.5012,1.5012,32.30782855
JVASP-44217,Ce1 W2 O8,1.3852,1.3369,32.29485341
JVASP-10717,Tb2 Ti2 S2 O5,1.0545,1.0545,32.29098168
JVASP-45372,Tb2 S3,1.5036,1.5036,32.28372022
JVASP-5215,Bi2 Se3,1.4242,1.3894,32.28275542
JVASP-22709,Mg1 As4,1.4193,1.3823,32.27610934
JVASP-4053,Ba1 Mg2 Bi2,1.1882,1.1512,32.27398066
JVASP-36491,Ca3 As1 P1,1.0513,1.0513,32.26599483
JVASP-14056,K1 Au1 Se5,1.507,1.507,32.26103764
JVASP-44380,Li2 Cr2 O7,1.4775,1.4649,32.25645888
JVASP-34134,Te7 Mo8 S9,1.1263,1.0897,32.24615017
JVASP-7774,Cd1 O1,1.5115,1.5115,32.21226893
JVASP-3495,In1 Cu1 Te2,1.0443,1.0443,32.20533535
JVASP-3342,Ga2 Hg1 Te4,1.5136,1.5136,32.19649586
JVASP-18961,Dy2 S3,1.5132,1.5132,32.19649586
JVASP-9868,Ca1 Ag2 O4,1.2376,1.2039,32.18581148
JVASP-54744,Sr1 H4 O6,1.0415,1.0415,32.17810304
JVASP-13365,Ca1 Pr2 Te4,1.4896,1.4801,32.17644049
JVASP-29172,Mo1 W1 Se4,1.2527,1.2214,32.17548161
JVASP-29621,Ag1 Au1 Cl4,1.0399,1.0399,32.1680647
JVASP-8270,Sn1 O2,1.514,1.5135,32.16346975
JVASP-50380,Zr1 Se1 O1,1.0368,1.0368,32.15205373
JVASP-13355,Ca1 Nd2 Te4,1.5043,1.4993,32.14271595
JVASP-54566,Na1 Sr2 Al1 P3,1.1793,1.1383,32.13557995
JVASP-2175,Ga2 Te5,1.4694,1.4485,32.1165007
JVASP-28816,W1 S2,1.4143,1.3704,32.11643522
JVASP-37663,Pr1 H3,1.0428,1.0411,32.11589055
JVASP-7750,Nd1 Te1 F1,1.0322,1.0322,32.11095444
JVASP-8371,Zn1 Cu2 Ge1 S4,1.031,1.031,32.10449642
JVASP-30120,Mo1 O3,1.5226,1.5218,32.09566405
JVASP-36680,Ca1 W1 N3,1.0522,1.0481,32.08929004
JVASP-10792,K1 Ho2 Cu1 S4,1.3816,1.3262,32.0668509
JVASP-5815,Ga2 Pd1 I8,1.2804,1.2476,32.06477072
JVASP-36658,Y1 N1,1.026,1.026,32.06301466
JVASP-3963,K2 Pd1 F4,1.4571,1.428,32.03670478
JVASP-4513,Ga1 Ag1 P2 Se6,1.319,1.2695,32.00260703
JVASP-30103,Mo1 O3,1.5302,1.5296,31.9968052
JVASP-57144,Na1 Li1 C1 O3,1.2237,1.182,31.9623946
JVASP-5053,In1 Ag1 P2 Se6,1.4222,1.3764,31.96020692
JVASP-34466,Li4 C1 O4,1.393,1.3363,31.95452169
JVASP-56505,Ag1 Te3 I1,1.5321,1.5308,31.94713501
JVASP-28870,W1 Se1 S1,1.0061,1.0061,31.9420084
JVASP-8432,In1 Ag1 Se2,1.0016,1.0016,31.92266305
JVASP-36245,Rb1 Ag1 O1,1.5354,1.5354,31.9194324
JVASP-5245,Pt1 Cl2,1.4452,1.4071,31.90763632
JVASP-3075,Li1 Zn1 Sb1,0.9981,0.9981,31.90314253
JVASP-10360,Sb2 O5,1.4159,1.3658,31.90183231
JVASP-3660,Cu2 Hg1 I4,0.9961,0.9961,31.89480909
JVASP-26415,Pr2 Ti2 S2 O5,0.9939,0.9939,31.88245859
JVASP-34033,Te4 Mo3 S2,1.1496,1.1016,31.85419704
JVASP-36465,Ca3 Sb1 N1,0.9866,0.9866,31.84220544
JVASP-56488,Sn3 As4,1.1869,1.1383,31.82041783
JVASP-5374,Bi1 I1,0.9824,0.9824,31.80514918
JVASP-29974,Ag3 S1 I1,1.2992,1.2534,31.80297564
JVASP-12976,Pd1 Pb2 Cl6,1.2444,1.2013,31.80107454
JVASP-5560,Ta1 I2 Cl2,1.5351,1.5306,31.79714551
JVASP-2418,Ga1 Cu1 S2,1.5436,1.5436,31.78969218
JVASP-36395,Ca2 Ge1,1.0726,1.0559,31.78786885
JVASP-32828,Sn1 I4,1.3131,1.2602,31.77988399
JVASP-43371,Ag1 As1 O3,1.2986,1.2516,31.76117193
JVASP-8518,Tl1 In1 Se2,1.5472,1.5472,31.72533921
JVASP-29647,Bi2 Pb2 Se5,0.9736,0.9736,31.70582029
JVASP-49222,Sm2 Se3,0.9725,0.9725,31.69870286
JVASP-3174,Ca3 P1 N1,1.5493,1.5493,31.69240134
JVASP-8532,In1 Ag1 Te2,0.9722,0.9722,31.69196141
JVASP-28403,W1 Se1 S1,0.9703,0.9703,31.67976301
JVASP-50672,Li1 Ag1 F4,1.2831,1.2385,31.65693889
JVASP-36382,Ca2 Sn1,1.0312,1.021,31.64600519
JVASP-56679,V1 O2,0.9649,0.9648,31.62950073
JVASP-36396,Ca2 Pb1,1.0446,1.0313,31.62138626
JVASP-21,Pb1 Se1,0.9619,0.9619,31.61193553
JVASP-1115,Pb1 Se1,0.9618,0.9618,31.60537305
JVASP-28669,Mo1 W3 S8,1.0669,1.0485,31.59985549
JVASP-25794,Re2 S1 Cl12,1.0899,1.0585,31.59956969
JVASP-8818,Sr2 H5 Rh1,0.9598,0.9598,31.5932041
JVASP-28397,Si1 S1,0.9587,0.9587,31.57941707
JVASP-29297,U1 Pb1 O4,1.5448,1.537,31.54877761
JVASP-35948,Sc2 Zn1 Se4,0.9541,0.9541,31.53538349
JVASP-29884,Cd1 In1 Ga1 S4,1.5467,1.5386,31.50831939
JVASP-12862,In5 Ag1 Se8,1.3903,1.3193,31.50780099
JVASP-33950,Te5 Mo4 S3,0.9545,0.9537,31.50262342
JVASP-34455,Li4 C1 O4,1.5278,1.508,31.49986959
JVASP-28476,Mo1 W2 Se4 S2,0.9513,0.9513,31.49797254
JVASP-2448,Ga1 Ag1 Se2,1.5603,1.5603,31.49217901
JVASP-8367,Ca3 Bi1 N1,0.9501,0.9501,31.48425231
JVASP-56367,K3 Bi1,1.0702,1.0475,31.47569575
JVASP-52498,Ti1 O1 F1,1.2878,1.2363,31.45713518
JVASP-34205,Li1 Al1 As2 O7,1.3318,1.2587,31.45504809
JVASP-28465,W3 Se4 S2,0.948,0.9479,31.45046969
JVASP-30660,Ta2 Mo1 O8,1.1121,1.0601,31.41690432
JVASP-33907,Te7 Mo6 S5,0.9562,0.9526,31.38295775
JVASP-28356,Pb1 S1,1.0209,1.0066,31.37614627
JVASP-28518,Mo1 W2 Se4 S2,0.943,0.943,31.37507889
JVASP-54845,Na1 Li2 N1,1.1329,1.0745,31.37116761
JVASP-8744,U1 Sb2 O6,1.5674,1.5663,31.36220848
JVASP-2946,Sr2 Zn1 N2,1.569,1.569,31.3561336
JVASP-28482,Te6 Mo1 W2,0.9435,0.9431,31.3551508
JVASP-54719,H4 N2 O3,1.3027,1.2418,31.34211352
JVASP-29712,Re3 Se4 Cl1,1.4128,1.3434,31.3320257
JVASP-5239,U1 Cl6,1.5583,1.5508,31.32804514
JVASP-11286,Ca1 Ti2 S5,0.9389,0.9389,31.29438766
JVASP-29420,Ag1 Bi1 S1 Cl2,1.5734,1.5734,31.28604229
JVASP-26802,Ag1 Bi1 S1 Cl2,1.5727,1.5727,31.28604229
JVASP-25602,K1 Ni1 I1 O6,0.9448,0.9424,31.28341749
JVASP-45965,Li8 Sb1 S6,0.9385,0.9385,31.28090051
JVASP-40945,K1 Na2 Bi1,0.9381,0.9381,31.28090051
JVASP-40207,Ca1 Sn1 S3,1.3612,1.2817,31.27129929
JVASP-26399,Nd2 Ti2 S2 O5,0.9375,0.9374,31.26317089
JVASP-13291,Ca4 Sb2 S1,1.5744,1.5744,31.24935253
JVASP-51260,Tl1 B1 Cl2,1.2723,1.2163,31.24649282
JVASP-33973,Te7 Mo6 S5,0.9947,0.9795,31.17587632
JVASP-13064,Tl2 Au4 S3,1.5779,1.5779,31.17247754
JVASP-43079,Li1 Cu1 S1,1.5781,1.5781,31.17247754
JVASP-12977,Pd1 Pb2 Br6,1.1299,1.0669,31.15985752
JVASP-34013,Te1 Mo1 S1,1.2411,1.1801,31.15568333
JVASP-34018,Te7 Mo6 S5,0.9325,0.9325,31.15515717
JVASP-34030,Te7 Mo6 S5,0.9324,0.9324,31.15515717
JVASP-22726,Na2 Tl1 Sb1,0.9783,0.9655,31.15350442
JVASP-11137,Ti1 P2 S6,1.5108,1.4726,31.14378059
JVASP-56342,Sr1 P3,0.9322,0.9322,31.13770661
JVASP-3600,Zr1 I1 N1,1.5797,1.5797,31.13345327
JVASP-9735,Tb1 Cu1 S2,1.5822,1.5822,31.09475824
JVASP-9150,Mg1 P4,1.0478,1.0219,31.08740884
JVASP-31871,Ta2 Te4 Br10 O1,1.1753,1.1074,31.06792837
JVASP-8520,Zn1 In2 S4,0.9296,0.9293,31.05695455
JVASP-34125,Te5 Mo4 S3,1.1165,1.054,31.04682582
JVASP-8347,Ca1 Ni1 F6,0.9605,0.9491,31.0462262
JVASP-344,W1 O3,1.5793,1.5743,31.04398423
JVASP-1201,Cu1 Cl1,1.5867,1.5867,31.01585052
JVASP-28410,W1 Se2,1.5869,1.5869,31.01585052
JVASP-11415,Rb1 V1 Cu2 S4,1.1929,1.124,31.01323236
JVASP-38088,Li1 Tl2 In1 F6,1.5669,1.5511,30.97823498
JVASP-18383,Ac1 H2,1.5881,1.5881,30.97660369
JVASP-5662,Ta1 Te2 Br6,1.0502,1.0206,30.95448914
JVASP-28422,Mo1 W1 Se2 S2,0.9231,0.923,30.85702646
JVASP-31854,Cu1 H12 N10 O8,0.9442,0.933,30.83711109
JVASP-33918,Te7 Mo6 S5,0.9221,0.9221,30.83475577
JVASP-10746,Ni1 O2,1.0545,1.0213,30.83428075
JVASP-12709,Ni1 O2,1.0234,0.9957,30.78864175
JVASP-3762,K2 Pd1 Br4,1.2939,1.2212,30.77914307
JVASP-8001,Ir1 F3,1.3329,1.24,30.77579297
JVASP-40948,K1 Ac1 Te2,1.5988,1.5988,30.77496962
JVASP-9683,Ca1 Pt1 O3,1.504,1.4503,30.76983579
JVASP-57176,Ag1 Te1 O3,1.2517,1.1814,30.76279539
JVASP-25144,P1,1.3762,1.2812,30.76116305
JVASP-9813,Mg1 Bi2 O5,0.9199,0.9199,30.75277407
JVASP-8779,Li1 Dy1 S2,1.5939,1.5892,30.73819907
JVASP-28849,Te8 Mo1 W3,0.9191,0.919,30.71562836
JVASP-48321,Li1 V3 O8,1.4702,1.4005,30.68327151
JVASP-48660,Li1 Y3 W1 O8,1.5675,1.5415,30.6790078
JVASP-25574,Rb4 Cu1 Si2 O7,1.0788,1.0329,30.67361979
JVASP-45969,Li3 Mg1 P1 C1 O7,0.9559,0.9379,30.67193024
JVASP-40432,K2 Ba1 Cd1 Sb2,0.9454,0.9299,30.64986765
JVASP-57086,K1 Ti1 P1 S5,1.3392,1.2411,30.62924339
JVASP-28855,Te4 Mo1 W1,0.9533,0.9343,30.59713938
JVASP-3693,Mg2 Fe1 H6,1.6091,1.6091,30.57164383
JVASP-35817,Ti1 Sn1 O3,1.0167,0.9849,30.54976148
JVASP-33839,Te1 Br2,1.6076,1.6049,30.54504908
JVASP-12739,Au2 O3,1.4623,1.3843,30.52503599
JVASP-3546,K2 Pd1 Cl4,1.0485,1.0098,30.51343129
JVASP-7812,K1 Zn1 As1,1.4419,1.3553,30.480285
JVASP-12438,Cd1 In2 Se4,1.3647,1.2607,30.46113031
JVASP-3420,In1 Ag1 S2,1.6152,1.6152,30.45875506
JVASP-11152,Pd1 F4,0.9267,0.9159,30.45255639
JVASP-28897,W1 Se1 S1,0.9649,0.9403,30.44814317
JVASP-10116,Ba1 Cu2 O2,1.6268,1.6268,30.44641602
JVASP-3897,Rh1 Br3,1.4136,1.3161,30.44632877
JVASP-25611,K1 Ba4 Sb3 O1,1.5688,1.5338,30.44461809
JVASP-2754,Sr1 Cd2 P2,1.6273,1.6273,30.44339017
JVASP-8807,Li1 Sm1 S2,1.6271,1.6271,30.44339017
JVASP-231,Mo1 Se2,1.4179,1.3218,30.4431685
JVASP-34036,Te4 Mo3 S2,1.1014,1.0344,30.44263452
JVASP-54983,Rb1 Ge1 I3,0.9133,0.9133,30.43514547
JVASP-8668,C1 I4,1.618,1.618,30.43341649
JVASP-28796,Mo3 W1 Se2 S6,0.9132,0.9131,30.43015383
JVASP-14003,Li1 Sc1 Mo3 O8,1.6185,1.6183,30.42847219
JVASP-2949,Ba2 Zn1 N2,1.1659,1.0822,30.42649182
JVASP-8187,Ta1 Cu1 N2,1.0617,1.0173,30.41761923
JVASP-2517,Nd1 Zn1 As1 O1,1.6216,1.6216,30.41733461
JVASP-9512,Cr1 Si1 O5,1.1281,1.0475,30.40404642
JVASP-25573,K3 Np1 H6 O8,1.6079,1.5993,30.3993722
JVASP-57245,Na1 Ni1 I1 O6,1.0799,1.0269,30.39227011
JVASP-24299,Ba4 Na1 Bi3 O12,1.0701,1.0221,30.38155462
JVASP-7756,Nb1 Ag1 O3,1.6399,1.6399,30.38038595
JVASP-3459,In2 Hg1 Se4,1.6386,1.6386,30.38038595
JVASP-23,Cd1 Te1,1.6399,1.6399,30.38038595
JVASP-36756,Li1 Ag1 O2,1.1672,1.0816,30.35202736
JVASP-35368,U1 Tl2 O4,1.5406,1.4857,30.34087447
JVASP-2436,Na1 Sb1 S2,1.6375,1.6338,30.33581886
JVASP-10230,K2 P3,1.3168,1.2195,30.31815626
JVASP-2937,K3 Sb2 Au3,1.58,1.5478,30.30841669
JVASP-2265,Cd1 Ge1 P2,1.6455,1.6455,30.24454377
JVASP-1639,Cd1 Hg1 O2,1.6269,1.617,30.20663286
JVASP-7952,In1 Ag1 S2,0.9866,0.9516,30.19194264
JVASP-9172,K1 As1,1.6492,1.6492,30.15451162
JVASP-36582,Mg1 Ge1 As2,1.65,1.65,30.15451162
JVASP-36927,K1 Ge1 Br3,1.6463,1.6415,30.13072117
JVASP-33908,Te3 Mo2 S1,1.0628,1.011,30.10652501
JVASP-44268,Li4 V1 Te3 O12,1.4777,1.3898,30.06520803
JVASP-52282,Li2 Ag1 F5,1.2441,1.1529,30.03403961
JVASP-36428,Zr1 C1,1.1958,1.1017,30.02744173
JVASP-28455,Te2 Mo1 W2 Se4,0.9049,0.9048,30.02073929
JVASP-56730,K1 Nb1 Ag2 Se4,1.6531,1.6484,29.99909332
JVASP-32749,Bi1 I1,1.0723,1.0145,29.99371642
JVASP-9162,C3 N4,1.5169,1.4387,29.99096961
JVASP-21352,Ca1 Si2 W1 O6,1.0727,1.0139,29.97056827
JVASP-5665,Ta1 Te2 Cl6,0.9027,0.9027,29.93226008
JVASP-32186,Co1 H9 C3 N6,1.6594,1.6575,29.92781841
JVASP-33922,Te1 Mo1 S1,1.0401,0.9886,29.87595308
JVASP-10034,Sb1 O2,1.3048,1.201,29.86515939
JVASP-32759,Bi1 Br1,0.9008,0.9008,29.83942736
JVASP-9280,Mg1 Bi4 O8,1.2213,1.1227,29.82412367
JVASP-10691,Ce1 Si1 O4,1.4477,1.3413,29.82371587
JVASP-62314,K5 Cu1 As2,1.5721,1.5152,29.81243229
JVASP-11202,K5 Cu1 As2,1.5717,1.5146,29.80717939
JVASP-3231,Ba1 Li1 P1,1.6673,1.6673,29.78537203
JVASP-61272,Te1 Au1 I1,1.2452,1.1468,29.76491683
JVASP-8151,K1 Nb1 Se2,1.3011,1.1945,29.72590485
JVASP-38049,Li1 Tl2 In1 Cl6,1.0822,1.0116,29.72043237
JVASP-50424,Ce1 Hf1 O4,1.6498,1.6305,29.69943606
JVASP-14315,Yb2 S2 O1,1.6723,1.6723,29.69477167
JVASP-10994,Ba1 Pd1 F4,0.9303,0.9021,29.68850301
JVASP-22653,Sr3 Bi1 N1,0.8975,0.8975,29.68568031
JVASP-28443,Ir1 I3,1.5394,1.459,29.67853828
JVASP-25415,Si1,1.2419,1.1389,29.60876771
JVASP-53177,Yb1 Bi2 Te4,1.2361,1.1322,29.59429366
JVASP-31900,Nb1 Te4 I6,0.9761,0.9313,29.59193986
JVASP-13028,Pd1 Se6 Cl2,1.6056,1.5624,29.58282434
JVASP-13061,Bi3 Se4 Br1,1.6502,1.6246,29.55083986
JVASP-29102,Te2 Mo1,1.0667,1.0007,29.53647352
JVASP-29345,Th1 Te2 I2,1.5355,1.4473,29.52250183
JVASP-40825,Ta1 Tl1 Pt1,1.2411,1.1357,29.52057113
JVASP-54790,Ga3 Os1,1.1667,1.0602,29.51121159
JVASP-26127,Th1 Te2 I2,1.5372,1.4492,29.50101616
JVASP-34220,Li4 C1 O4,1.2616,1.1568,29.48520824
JVASP-1963,Bi1 Te1 I1,1.6831,1.6831,29.4739725
JVASP-35950,Mg1 Sc2 Se4,1.6832,1.6832,29.4739725
JVASP-10465,Pt1 F4,1.67,1.6583,29.47075515
JVASP-52680,Li5 Si1 P3,1.6853,1.6853,29.43010795
JVASP-11398,As2 Ir1,1.0701,0.9996,29.40952677
JVASP-12742,Au1 Cl1 O1,1.5571,1.4755,29.40120593
JVASP-56593,Si3 As4,0.9904,0.9377,29.39307612
JVASP-2337,Zn1 Sn1 P2,1.6891,1.6891,29.38532586
JVASP-40199,Ca3 Sn1 S5,1.688,1.688,29.38532586
JVASP-36477,Sr3 Sb1 As1,0.8907,0.8907,29.38163951
JVASP-3855,Rh1 Cl3,1.6766,1.6656,29.35572506
JVASP-53485,Ca3 U1 N4,1.6472,1.6115,29.35549135
JVASP-34017,Te1 Mo1 S1,1.2685,1.1591,29.33051537
JVASP-35012,Nd1 Te1 Cl1,0.8898,0.8898,29.32125557
JVASP-33935,Te1 Mo1 S1,1.2683,1.1584,29.3128125
JVASP-41817,Ir2 S3,1.2642,1.1541,29.29264921
JVASP-7790,Zn1 Pd1 F6,1.6943,1.6943,29.25596752
JVASP-29874,Ag1 Sb1 S2,1.3559,1.2161,29.23752887
JVASP-56253,Nb3 Sb2 Te5,1.165,1.0516,29.22735623
JVASP-33832,H16 Rh1 N5 Cl6 O3,1.7029,1.7029,29.15265448
JVASP-24321,Na1 P1 Pd1 S4,1.4634,1.3389,29.14877006
JVASP-5602,Nb3 Te1 Cl7,0.8868,0.8863,29.14653604
JVASP-7803,Cd1 Te1,1.0947,1.0019,29.12777739
JVASP-8793,K2 Na1 As1,1.704,1.704,29.12148937
JVASP-34071,Te4 Mo3 S2,1.0956,1.0015,29.09701347
JVASP-40763,K1 Ba1 P1,1.6616,1.6257,29.09235819
JVASP-9785,K1 V1 Cu2 S4,1.1027,1.0033,29.09152097
JVASP-35137,Ce1 Zr1 O4,1.7074,1.7073,29.08460782
JVASP-56315,Ba1 Ag2 Ge1 Se4,0.8847,0.8847,29.08218821
JVASP-35506,Sr4 Bi2 O1,1.442,1.3088,29.06609924
JVASP-152,Si1 P2,1.6577,1.6184,29.05731569
JVASP-10298,K2 V1 Ag1 S4,1.5199,1.4075,29.02490175
JVASP-36677,Ti1 P1 N3,0.8829,0.8829,28.9933937