JID,Formula,Dir.gap (eV),Indir. gap (eV),Eff (%)
JVASP-12549,Ba1 Ta2 Bi2 O9,3.5547,3.2023,0.935822852
JVASP-9607,Cd2 Si1 O4,3.5782,3.477,0.933312481
JVASP-22540,Li1 Mg1 P1,3.4302,2.2495,0.930792043
JVASP-54472,Pb1 Cl2 O4,3.5006,2.6796,0.930394667
JVASP-22591,Zn1 S1,3.593,3.593,0.927583527
JVASP-1702,Zn1 S1,3.5923,3.5923,0.927583527
JVASP-1819,Li1 Y1 S2,3.4913,2.5776,0.922153297
JVASP-31161,Li1 Mg1 P1,3.4319,2.2318,0.920416416
JVASP-37170,Na1 Dy1 Se2,3.5066,2.6893,0.915411998
JVASP-35214,Na2 Zn1 Se2,3.5958,3.5958,0.909650466
JVASP-57104,Zn1 S1,3.5965,3.5965,0.909650466
JVASP-35542,Ge1 Ru1,0.2188,0.1037,0.900223958
JVASP-8448,Nd3 Pb1 C1,0,-0.1151,0.900223958
JVASP-27195,Os1 O4,3.5965,3.5597,0.898688894
JVASP-3153,Li1 Zn1 P1 S4,3.5883,3.4219,0.89504292
JVASP-53602,Zn2 Ge1 S4,3.5796,3.3549,0.894110973
JVASP-56461,Ca3 Al2 N4,3.6023,3.6023,0.894062179
JVASP-10206,In1 Ga1 O3,3.5839,3.4041,0.890877582
JVASP-35664,Mg1 Be2 P2,3.1958,1.3284,0.885807763
JVASP-8454,Pb1 O1,3.5867,3.3896,0.885501557
JVASP-50062,Li1 Sb1 P1 H1 O5,3.5896,3.4497,0.885032722
JVASP-119,Rb2 Te1,3.5892,3.439,0.881901709
JVASP-28554,Te2 Mo2 W1 Se2 S2,0.1131,-0.0029,0.88014221
JVASP-10855,Zn1 Fe2 O4,0.0002,-0.1158,0.878679766
JVASP-10104,Ba2 Y1 Nb1 O6,3.6082,3.6082,0.877798172
JVASP-21201,F2,3.6085,3.6085,0.877798172
JVASP-11393,K3 Au1 Se2,3.6023,3.5434,0.876846664
JVASP-52561,Li1 Ag1 F2,3.5834,3.3152,0.863407606
JVASP-49946,Na2 Ti2 O5,3.613,3.6018,0.8554963
JVASP-40289,Pm2 S3,3.6045,3.5219,0.854129633
JVASP-9679,Th1 Ti2 O6,3.6059,3.5156,0.851922269
JVASP-57750,Ca4 Ir1 O6,0,-0.1172,0.850978099
JVASP-26318,Ba2 Ta1 Bi1 O6,3.6102,3.5552,0.843239019
JVASP-40193,Ca2 Sn1 S4,0.8959,0.2609,0.838749606
JVASP-7648,Zn1 S1,3.6163,3.6163,0.838212474
JVASP-53363,K3 Cl1 O1,3.6196,3.619,0.838047673
JVASP-22600,Rb1 S1,3.605,3.443,0.831382401
JVASP-41682,Y1 Br3,3.617,3.5905,0.830982326
JVASP-22582,Zn1 S1,3.6249,3.6249,0.818065906
JVASP-50029,Na2 O1,3.6221,3.6221,0.818065906
JVASP-29367,Sn1 O1,3.5694,2.9992,0.815103991
JVASP-52376,Ca1 Pb1 I4,3.6176,3.5313,0.814667682
JVASP-52221,Li2 Ag1 F3,3.6048,3.3615,0.808098079
JVASP-13103,Sr2 Sn1 S4,3.6205,3.5681,0.804134079
JVASP-36193,Be1 Se1,3.31,1.5128,0.801880654
JVASP-5446,Sb1 S8 Cl3,3.6239,3.5526,0.799110024
JVASP-3396,K3 Cr1 O4,3.6225,3.5504,0.798897261
JVASP-28463,Te2 W3 S4,0.4408,0.2089,0.79671821
JVASP-57308,Tl2 Mo1 O4,3.6225,3.5257,0.792330598
JVASP-30333,Mn5 Co1 O12,0.0222,-0.0977,0.790054806
JVASP-29371,Hg1 Pb2 Cl2 O2,3.6232,3.5152,0.789352937
JVASP-57279,Ag1 C1 S1 N1,3.6336,3.6336,0.780084821
JVASP-26807,Dy1 Ti1 Cl1 O3,3.6356,3.6356,0.780084821
JVASP-36252,Nd1 Bi1 Pd1,0.4424,0.2082,0.777266087
JVASP-12665,V1 In1 O4,3.6275,3.5416,0.776403558
JVASP-35963,Lu1 Tl1 S2,3.4502,2.0412,0.768777236
JVASP-30178,Ti1 O1 F2,3.6327,3.5853,0.768102786
JVASP-50214,Y2 Se1 O2,3.607,3.2078,0.76346309
JVASP-9103,N1 O2,3.6398,3.6245,0.757617023
JVASP-13792,S1 Cl1,3.6393,3.6109,0.754389671
JVASP-25119,O2,3.6396,3.5984,0.751229114
JVASP-4020,Dy1 S1 Br1,3.6411,3.5937,0.749708611
JVASP-11570,Y1 Bi1 O3,3.6074,3.146,0.745661876
JVASP-34174,Co1 P2 O7,0.0262,-0.0959,0.743105539
JVASP-13113,Tl2 Zn1 I4,3.6452,3.6452,0.741412338
JVASP-52114,Co1 P2 O7,0.0262,-0.096,0.741129787
JVASP-22691,Na2 H4 Pt1,3.6453,3.613,0.733674767
JVASP-16601,Nb1 Al1 Ru2,0,-0.1227,0.731132855
JVASP-8696,Na5 Li1 N2,0.0657,-0.0572,0.72707835
JVASP-3027,Al1 Ag1 O2,3.5297,2.4001,0.723576457
JVASP-9994,Ba2 Er1 Nb1 O6,3.6508,3.6508,0.721359102
JVASP-10999,Ba2 Tm1 Nb1 O6,3.6472,3.6472,0.721359102
JVASP-13040,Na4 Sn1 S4,3.6517,3.6517,0.721359102
JVASP-51710,Mg2 H6 Os1,3.6506,3.6506,0.721359102
JVASP-8004,Ca1 C2,3.5602,2.621,0.717817183
JVASP-9692,Ti1 Al2 O5,3.638,3.4565,0.716679772
JVASP-8789,Ta1 O2 F1,3.6268,3.3068,0.715758048
JVASP-54718,Mo1 H2 O4,3.6488,3.6092,0.712143648
JVASP-51002,Mo1 H2 O4,3.6475,3.6078,0.712120435
JVASP-52560,Ho2 Ti1 O5,3.6443,3.5212,0.711926981
JVASP-32484,Os1 C4 Cl2 O4,3.6483,3.6076,0.711887716
JVASP-8027,Ga1 N1,3.4779,2.0474,0.711642254
JVASP-12320,Pb1 C2 S2 N2,3.6413,3.5148,0.711112183
JVASP-11758,Ho6 W1 O12,3.6498,3.6024,0.710327864
JVASP-11361,Tm2 S3,3.6382,3.4153,0.70648568
JVASP-1717,Rb1 Tb1 Se2,3.6032,2.9602,0.706283668
JVASP-14992,Na3 N1,0,-0.124,0.704195588
JVASP-1804,K1 Pr1 S2,3.6297,3.2612,0.703199192
JVASP-10591,Zn1 S1,3.6559,3.6559,0.70243649
JVASP-52521,Rb1 N1 O2,3.6546,3.6175,0.694040928
JVASP-50952,Tm2 Ti1 O5,3.6475,3.5292,0.693830723
JVASP-50021,Ca1 Pb1 I4,3.6527,3.582,0.68643816
JVASP-37163,Na1 Nd1 S2,3.6226,3.1209,0.684764864
JVASP-25363,C1,0.3856,0.197,0.682808465
JVASP-30458,C1,0.3854,0.1968,0.682808465
JVASP-9798,Ca1 Bi2 O4,3.6395,3.2961,0.676821799
JVASP-49767,Ti1 O1,0.0002,-0.1254,0.673064969
JVASP-35745,Ba1 Ca1 O2,3.6619,3.6076,0.671999253
JVASP-50913,Y1 Bi3 O6,3.633,3.1932,0.668973627
JVASP-12152,Zr1 Mo2 O8,3.6559,3.4989,0.666913971
JVASP-22618,Zn1 S1,3.6651,3.6651,0.665777639
JVASP-10997,Ba2 Dy1 Nb1 O6,3.6628,3.6628,0.665777639
JVASP-10998,Ba2 Ho1 Nb1 O6,3.6655,3.6655,0.665777639
JVASP-4047,Li4 N1 Cl1,3.61,2.9192,0.665483565
JVASP-52306,Sc2 Ti1 O5,3.6664,3.6498,0.662227082
JVASP-12755,K1 Tl1 Cl4,3.6658,3.6214,0.65628271
JVASP-5296,Ca1 H2,3.566,2.4801,0.656224264
JVASP-25205,F2,3.668,3.6086,0.653075072
JVASP-1606,Na1 Er1 Se2,3.5984,2.7281,0.650781905
JVASP-59662,Li2 Fe1 Cu1 C6 N6,0.0021,-0.1247,0.649657432
JVASP-12730,In1 O1 F1,3.6709,3.6709,0.648478438
JVASP-50904,Lu2 Ti1 O5,3.6644,3.5466,0.640588255
JVASP-12412,Ba2 Sm1 Nb1 O6,3.6772,3.6772,0.632578558
JVASP-57335,K4 V2 O7,3.6788,3.6764,0.632092933
JVASP-35082,Sr2 H3 I1,3.6503,3.2651,0.631755085
JVASP-8695,Na1 Li5 N2,3.6468,3.243,0.627432217
JVASP-10531,Na3 Ag1 S2,3.664,3.4639,0.622994707
JVASP-1654,Rb1 Pr1 S2,3.6627,3.332,0.611217267
JVASP-46763,Li2 Co3 Sn1 O8,0.2489,0.12,0.610418149
JVASP-3147,Sc1 Ag1 O2,3.6372,3.0115,0.607373865
JVASP-36391,Sc1 N1,3.686,3.6803,0.601521957
JVASP-13081,Ba1 B2 S4,3.6813,3.5862,0.59900245
JVASP-50766,Na5 Sb1 O5,3.6902,3.6566,0.57974269
JVASP-1225,Bi2 O3,3.6743,3.3978,0.57658251
JVASP-36958,In1 Ge1 Cl3,3.6953,3.5995,0.568122424
JVASP-9671,Ca1 Sb2 O4,3.6972,3.6972,0.567783202
JVASP-40246,Ba2 Sc2 O5,3.6977,3.6797,0.56452943
JVASP-252,Pb1 O1,3.5918,2.3864,0.561706092
JVASP-38158,Hg1 F2,3.7009,3.6443,0.557552511
JVASP-1121,Sr1 Se1,3.6678,3.1237,0.549506577
JVASP-2346,Cd1 Ga2 S4,3.7064,3.7064,0.549059241
JVASP-54758,Te1 H6 O6,3.7015,3.7015,0.549059241
JVASP-8594,K2 Sn1 Cl6,3.7053,3.7053,0.549059241
JVASP-30280,Co3 Te1 O8,0.1217,-0.0111,0.543692672
JVASP-11193,K3 Ge1 S3,3.7051,3.6432,0.538256029
JVASP-50688,Li5 Ag1 F8,0.0002,-0.1332,0.533556683
JVASP-13789,Al1 I1 Cl6,3.7079,3.6957,0.529048245
JVASP-56446,Ba1 Zn2 As2,0.7199,0.225,0.526189808
JVASP-1903,Er1 Ni1 Sb1,1.1955,0.2739,0.522141021
JVASP-50915,Sm1 Ag1 O2,3.6902,3.3101,0.515037549
JVASP-12680,Ti1 Si2 O6,3.7165,3.7048,0.512493035
JVASP-50783,Li4 H3 Br1 O3,3.7137,3.6954,0.511416126
JVASP-22929,Y2 Ti1 O5,3.7069,3.5826,0.510151223
JVASP-2853,Rb1 Li1 S1,3.7145,3.6788,0.508579629
JVASP-1723,Rb1 Er1 Se2,3.6675,2.927,0.507590614
JVASP-281,Sn1 O1,3.2716,1.0596,0.504761186
JVASP-12833,K2 B2 S7,3.7145,3.6312,0.500819362
JVASP-19111,K2 B2 S7,3.7145,3.6312,0.500819362
JVASP-11387,Li2 Ge1 O3,3.7149,3.6202,0.498960669
JVASP-8706,Y1 Au1 O2,3.7211,3.7211,0.497997604
JVASP-25277,O2,3.7077,3.5091,0.497629661
JVASP-40602,Sc1 Ta1 Ru2,0.0026,-0.1332,0.495705999
JVASP-25775,Cd2 Bi1 As1 O6,3.722,3.6993,0.494419561
JVASP-1720,Rb1 Ho1 Se2,3.6751,2.9691,0.489698511
JVASP-40311,Sr2 Li1 In1,0,-0.1362,0.48931015
JVASP-51436,Ti1 Zn1 O3,3.7219,3.6532,0.487169545
JVASP-57529,K1 Hg2 S1 Cl3 O3,3.718,3.6153,0.481810838
JVASP-28858,Te3 W2 Se1,0.0274,-0.1093,0.481171599
JVASP-3711,Ba1 H1 I1,3.7237,3.7237,0.480625411
JVASP-35120,Ba1 Ca3 O4,3.7258,3.7258,0.480625411
JVASP-8814,Ca1 H1 N1,3.7233,3.7233,0.480625411
JVASP-11135,Ti1 Cd1 O3,3.7252,3.7106,0.478407266
JVASP-36188,Ba1 O1,3.7217,3.5942,0.477903155
JVASP-22630,Cd1 I2,3.7132,3.4561,0.472492009
JVASP-62345,As2 Pb1 O6,3.7008,3.1608,0.470244287
JVASP-15747,Ho3 Sn1 C1,0,-0.1375,0.46999952
JVASP-37693,Ge2 O3,3.6252,2.3083,0.468763404
JVASP-7816,Ca1 C2,3.6887,2.9694,0.464360261
JVASP-25104,Cl2,3.7327,3.7327,0.462810999
JVASP-10554,Sb1 P1 O5,3.7295,3.7295,0.462810999
JVASP-10693,K3 Sb1 O4,3.7319,3.642,0.44968068
JVASP-10213,Li2 Zn1 Ge1 O4,3.7329,3.6417,0.449490831
JVASP-37072,Na1 Tb1 Se2,3.691,2.9527,0.448226555
JVASP-17162,Cu2 Sn1 Te3,0.0723,-0.0669,0.445114434
JVASP-3606,Rb2 Sn1 Cl6,3.7361,3.7361,0.445094472
JVASP-54740,Ba1 H4 O6,3.7356,3.7356,0.445094472
JVASP-32188,H4 I1 N1 O4,3.7348,3.7348,0.445094472
JVASP-55714,H4 I1 N1 O4,3.7347,3.7347,0.445094472
JVASP-1825,Li1 Ho1 S2,3.674,2.7276,0.441133921
JVASP-36669,Ca1 B2 H2,2.1392,0.3834,0.440952131
JVASP-9140,Lu2 S3,3.7257,3.4601,0.440291063
JVASP-32786,Sb1 Br3,3.7384,3.6825,0.43725289
JVASP-3630,B1 I3,3.7289,3.5368,0.434757293
JVASP-38538,Li1 Br1,3.7388,3.6414,0.431432519
JVASP-5299,K1 B1 H4,3.6596,2.5009,0.429513688
JVASP-12497,Ba2 Bi1 Sb1 O6,3.6967,2.9245,0.428358261
JVASP-8714,Y1 Ni1 Bi1,0.8857,0.2359,0.428130189
JVASP-1285,Ba1 O2,3.7418,3.7418,0.428120985
JVASP-1261,Hg1 F1,3.6473,2.373,0.42545536
JVASP-53530,Li6 I3 N1,3.7435,3.6906,0.42099383
JVASP-38028,Sb1 O1 F1,3.7377,3.5632,0.420620361
JVASP-26365,Rb1 Ge1 I1 O6,3.7457,3.6248,0.411833004
JVASP-855,Cl2,3.7484,3.7484,0.411776569
JVASP-25204,F2,3.7495,3.7495,0.411776569
JVASP-11633,Ca1 Bi2 O4,3.7458,3.7414,0.411206564
JVASP-24968,Pr4 S3 N1 Cl3,3.7513,3.7424,0.410624846
JVASP-17671,In1 Te1,0.3191,0.1696,0.407885721
JVASP-29526,Zn1 Te1 Mo1 O6,3.7467,3.7043,0.406289656
JVASP-1309,Ca1 Se1,3.7038,2.8824,0.405860934
JVASP-38644,Ni3 Pb1,0,-0.1421,0.405736725
JVASP-36587,Hf1 Mg1 O3,3.7371,3.4353,0.402773152
JVASP-25270,O2,2.4583,0.4375,0.400326771
JVASP-29502,Pb1 S1,3.753,3.7529,0.394316038
JVASP-10162,Ca1 Bi2 O4,3.7525,3.7493,0.393932451
JVASP-12489,Ba2 Bi1 Sb1 O6,3.7147,2.9737,0.393705735
JVASP-52477,Na2 Ti1 O3,3.7517,3.7322,0.39191529
JVASP-40795,Nb1 Al1 Pt1,0,-0.1436,0.386649098
JVASP-5347,Zr1 Cl1,0.0016,-0.1421,0.385447589
JVASP-3696,Ba1 Li1 H3,3.7459,3.537,0.384749018
JVASP-38087,Rb2 Tl1 In1 Cl6,3.7313,3.1948,0.38450065
JVASP-1657,Rb1 Nd1 S2,3.7423,3.3944,0.381265831
JVASP-8012,Sr1 C2,3.7249,3.0531,0.378669667
JVASP-36947,In1 Pb1 Cl3,3.7597,3.7597,0.375010982
JVASP-57484,Sr1 Ti1 Si2 O7,3.7617,3.7269,0.370921282
JVASP-37338,Sn1 Pb1 O3,3.7113,2.756,0.370282504
JVASP-47721,Li2 Cu2 F7,0.0251,-0.12,0.368117358
JVASP-34204,Sr1 Sn1 O3,3.726,2.9594,0.364301433
JVASP-10121,Na3 Sb1 O4,3.7674,3.7674,0.355775686
JVASP-18990,Te1 O2,3.7649,3.7649,0.355775686
JVASP-52544,Ba2 Y1 Br7,3.768,3.768,0.355775686
JVASP-36112,K1 Nd1 S2,3.7492,3.3152,0.355643314
JVASP-4002,Na4 Br2 O1,3.7672,3.7503,0.353893807
JVASP-44669,Lu6 W1 O12,3.7684,3.7135,0.349662226
JVASP-36632,Zn1 Ge1 O3,3.6935,2.4214,0.34886481
JVASP-3465,In1 P1 S4,3.7595,3.4694,0.340926675
JVASP-37159,Na1 Sm1 S2,3.7492,3.1971,0.340381429
JVASP-30393,Li2 Ni1 O2,0,-0.1475,0.340244677
JVASP-25102,F2,3.7725,3.7725,0.338481152
JVASP-3828,K2 Tc1 Cl6,0,-0.1477,0.338016153
JVASP-9776,Ba2 Tb1 Nb1 O6,3.7703,3.7533,0.336682409
JVASP-9390,Hg1 S1 O4,3.7627,3.4173,0.334432519
JVASP-57348,Tm1 Mo1 Cl1 O4,3.7682,3.5107,0.327109604
JVASP-26735,Al1 S1 Cl7,3.7747,3.7732,0.323160076
JVASP-21243,Na1 Ta1 O3,3.7769,3.7623,0.321838024
JVASP-37167,Na1 Ho1 Se2,3.7425,2.9516,0.321677531
JVASP-4219,Al1 I3,3.7752,3.759,0.321676072
JVASP-25668,Tl1 In1 As2 O7,3.7775,3.7521,0.32074785
JVASP-36637,Mg1 Zr1 O3,3.7681,3.4392,0.319164741
JVASP-12028,In1 Br3,3.7747,3.7113,0.316913307
JVASP-36806,Ag1 As1 O2,3.7684,3.4062,0.315459915
JVASP-12889,Na4 Sn1 O3,3.7774,3.6557,0.311031079
JVASP-10149,K1 Tc1 O4,3.784,3.784,0.308986799
JVASP-33718,F2,3.7832,3.7832,0.308986799
JVASP-40102,Yb1 Mo1 Cl1 O4,3.7802,3.7563,0.306684699
JVASP-48541,Li4 V1 O4 F1,3.7806,3.7458,0.305634699
JVASP-1459,Tm1 Ni1 Sb1,1.1878,0.2532,0.30178756
JVASP-1828,Li1 Er1 S2,3.7433,2.7729,0.297564047
JVASP-1420,Na2 Te1,3.7865,3.7865,0.293219045
JVASP-35121,Ba1 Zr1 O3,3.7869,3.7869,0.293219045
JVASP-26443,Sc1 Nb1 O4,3.7871,3.7871,0.293219045
JVASP-35774,Ho1 Ni1 Bi1,0.6781,0.2016,0.291787286
JVASP-54829,Na1 Li2 N1,0.0313,-0.1208,0.291382942
JVASP-29888,Zr1 N1 Cl1,3.7775,3.397,0.284929783
JVASP-9766,Na2 Ti1 Si1 O5,3.7867,3.6733,0.282869724
JVASP-15757,Sm3 Al1 C1,0,-0.153,0.281943007
JVASP-44620,Li1 Y3 W1 O8,3.7932,3.7932,0.276858839
JVASP-15583,Mn1 Al1 Au2,0.0489,-0.1047,0.275583619
JVASP-16301,Ca1 P1 Au1,0.179,0.0246,0.268919614
JVASP-1750,Er1 Sb1 Pd1,1.0422,0.2357,0.264417538
JVASP-36626,Cd1 Ge1 O3,3.7358,2.4314,0.262517614
JVASP-4083,Cl1 F1,3.7989,3.7989,0.260086219
JVASP-56271,Tl1 Cl1,3.7995,3.7963,0.259827605
JVASP-57352,Er1 Mo1 Cl1 O4,3.7946,3.5475,0.255596858
JVASP-8195,Ca1 C2,3.7769,3.0372,0.248738295
JVASP-16643,Yb1 Cu1 Sb1,1.0227,0.2318,0.247529041
JVASP-13734,Yb1 Cu1 Sb1,1.0228,0.2318,0.24664808
JVASP-1939,Hg1 Cl1,3.7859,3.2489,0.244238441
JVASP-13071,Ta1 Ag1 F6,3.8075,3.8036,0.244096402
JVASP-34274,Ba2 Pr1 Nb1 O6,3.8035,3.7954,0.24377802
JVASP-1525,Ca1 Hg1 O2,3.79,3.2018,0.239572598
JVASP-1690,Na1 Y1 S2,3.7873,3.1023,0.230753567
JVASP-56672,Y1 Mo1 Cl1 O4,3.8078,3.6058,0.229086917
JVASP-52268,La1 Ag1 O2,3.8083,3.5791,0.227026657
JVASP-35208,Zn2 Si1 O4,3.8095,3.7175,0.224499787
JVASP-1807,K1 Sm1 S2,3.7989,3.3126,0.220840125
JVASP-12818,Na5 In1 S4,3.8182,3.8182,0.219677565
JVASP-50455,Lu2 Te1 O6,3.8157,3.8157,0.219677565
JVASP-60670,Co1 Re2 O8,0.1942,0.0339,0.219412
JVASP-24333,Nd4 S3 N1 Cl3,3.8203,3.8054,0.218665532
JVASP-37831,Ca2 Ag1 Bi1,0.2262,0.0657,0.217867357
JVASP-53122,Li6 Br3 N1,3.8158,3.7391,0.214467308
JVASP-40032,Ti1 Be1 Ir2,0,-0.1614,0.21076311
JVASP-12926,Ca1 In1 Br3,3.8204,3.6525,0.208273495
JVASP-55702,Tc1 H4 N1 O4,3.8224,3.8224,0.208074209
JVASP-12163,Ca1 Pb1 I4,3.8217,3.7491,0.203409163
JVASP-57364,Ho1 Mo1 Cl1 O4,3.819,3.5748,0.203092465
JVASP-17745,Pr3 Sn1 C1,0,-0.1627,0.200044097
JVASP-13894,Fe1 Pb2 C6 N6,3.8291,3.8291,0.196784706
JVASP-34289,Ti1 O2,3.8285,3.8285,0.196784706
JVASP-50888,Ba1 Y1 Br5,3.8278,3.8278,0.196784706
JVASP-12529,Rb1 I1 O4,3.8286,3.8229,0.196438611
JVASP-37111,Rb1 Y1 S2,3.8141,3.2913,0.193695651
JVASP-29314,Zr1 Mo2 O8,3.8307,3.7726,0.193258491
JVASP-27004,Zr1 Mo2 O8,3.8316,3.7728,0.193216204
JVASP-52271,Li1 Ag1 F2,3.8206,3.4275,0.192984965
JVASP-45292,Hg1 B4 O7,3.8276,3.6626,0.186772019
JVASP-7658,Sr1 C2,3.8261,3.3583,0.17803077
JVASP-10182,Mg1 In2 O4,3.8392,3.8392,0.177960381
JVASP-33806,Pm1 Br3,3.8442,3.8442,0.177960381
JVASP-50860,Tm2 Se1 O2,3.8392,3.6863,0.169592729
JVASP-46084,Dy2 Se1 O2,3.8345,3.5142,0.168208475
JVASP-12112,Sc1 Br1 O1,3.8429,3.6468,0.167229292
JVASP-36210,Y1 Bi1 Pd1,0.6396,0.1824,0.165279505
JVASP-57345,Dy1 Mo1 Cl1 O4,3.8394,3.6004,0.164882475
JVASP-2106,Tl1 F1,3.8534,3.8021,0.157482092
JVASP-8206,Mg1 Al2 C2,3.8029,2.5088,0.155803718
JVASP-8025,Ti1 F2,1.00E-04,-0.1696,0.155545687
JVASP-51369,In1 H1 O2,3.8603,3.8603,0.15019955
JVASP-54469,Y1 Cl1 O1,3.8355,3.1657,0.148147722
JVASP-50804,Li1 Ag1 F2,3.8341,3.1615,0.147987251
JVASP-8713,Sc1 Ni1 Bi1,1.0076,0.2143,0.144513639
JVASP-52356,Ba1 Sr1 O2,3.8592,3.7281,0.144168623
JVASP-4122,Y1 Ag1 O2,3.8453,3.3056,0.141081692
JVASP-2430,Zn1 Ga2 S4,3.8636,3.8636,0.13988556
JVASP-34276,Ba2 Ta1 Bi1 O6,3.8643,3.8643,0.13988556
JVASP-13413,Th1 Ta2 O7,3.8664,3.8646,0.139808646
JVASP-49998,Er2 Te1 O6,3.8668,3.8511,0.139213818
JVASP-19094,Na2 Ge1 S3,3.866,3.7654,0.135580773
JVASP-1426,Sc1 Sn1 Au1,1.2742,0.238,0.130909485
JVASP-50444,Tm2 Te1 O6,3.8743,3.8743,0.129767698
JVASP-22603,Tl1 F1,3.8736,3.8061,0.127091327
JVASP-35231,K2 Sn1,0,-0.1751,0.126878965
JVASP-10252,Zn1 O2,3.8744,3.7595,0.125212151
JVASP-37073,K1 Tb1 S2,3.8605,3.2828,0.123639834
JVASP-36115,K1 Y1 S2,3.8567,3.2667,0.123074805
JVASP-12493,Pb2 Cl1 O1 F1,3.8795,3.8795,0.121325559
JVASP-51683,Rb2 H4 Pt1,3.8756,3.8756,0.121325559
JVASP-34962,Li1 C1 N1,3.8768,3.8288,0.119548438
JVASP-42668,Sr1 Ca1 I4,3.8832,3.8804,0.11317057
JVASP-56708,Lu1 Mo1 Cl1 O4,3.8845,3.7609,0.109000829
JVASP-3915,Nd1 Br3,3.8834,3.7473,0.108569501
JVASP-8566,Ag1 I1,3.8108,2.0892,0.108281046
JVASP-3261,Er2 Se1 O2,3.8847,3.6458,0.105022222
JVASP-2349,K1 Li1 Te1,3.8887,3.8887,0.104824895
JVASP-36201,Al1 Ga1 N2,3.8906,3.8906,0.104824895
JVASP-39198,Mg2 Sn1 O4,3.8914,3.8914,0.104824895
JVASP-55730,Li1 Be1 H3,3.8895,3.881,0.104553516
JVASP-11774,Ba2 Ca1 W1 O6,3.8921,3.874,0.104247328
JVASP-12450,Pb1 C2 O4,3.8915,3.8706,0.10415795
JVASP-9743,Li1 Ga1 O2,3.8922,3.8406,0.103178375
JVASP-38834,Zr1 Ge1 Ru2,0,-0.1822,0.098121382
JVASP-1456,Ba1 Hg1 O2,3.8826,3.3961,0.096482389
JVASP-25615,Sc2 Te1 O6,3.8983,3.8019,0.094316523
JVASP-61252,Cd1 As2 O6,3.8986,3.6991,0.091271902
JVASP-39816,Li2 Ca1 Pb1,0.207,0.0229,0.089626568
JVASP-32768,Zr1 Cl4,3.9025,3.8526,0.088550801
JVASP-12368,Fe1 Sn2 C6 N6,3.9006,3.8428,0.088335196
JVASP-57142,Dy1 S1 Cl1,3.9014,3.8402,0.088242374
JVASP-22633,Si1 C1,3.8727,2.8192,0.088058334
JVASP-8134,Si1 B6,0.8095,0.182,0.083236243
JVASP-38272,Rb1 Tc1 O4,3.9093,3.9093,0.082377505
JVASP-17375,Ca1 Sb1 Au1,0,-0.1868,0.081082419
JVASP-50896,Rb3 Sb1 O3,3.9097,3.8515,0.080923382
JVASP-3561,Tl1 I1 O3,3.897,3.3095,0.079821414
JVASP-37313,Sr1 Hg1 O2,3.8981,3.2993,0.079488214
JVASP-17455,Na1 Fe2 O3,0.0106,-0.1774,0.078317611
JVASP-3717,Al1 H3,3.9066,3.7313,0.077998248
JVASP-44468,Sm1 Cu1 O3,0.0378,-0.1506,0.077366435
JVASP-37071,Na1 Tb1 S2,3.905,3.2487,0.072009231
JVASP-56435,K2 Sn1 Cl6,3.9196,3.9196,0.069087734
JVASP-29482,Lu1 S1 Br1,3.9207,3.9102,0.068868308
JVASP-3780,Lu1 S1 Br1,3.9179,3.9063,0.068845312
JVASP-8812,K1 N1 O2,3.9224,3.8576,0.06773313
JVASP-137,Si1 S2,3.9128,3.5611,0.067270884
JVASP-39261,K3 Si1,0,-0.1924,0.066978434
JVASP-26997,Ti1 Si1 Ni1,0.0246,-0.1678,0.066978434
JVASP-36615,Zn1 Si1 O3,3.8988,2.8603,0.066531306
JVASP-15952,Er3 Ga1 C1,0.0012,-0.192,0.06469606
JVASP-3531,Na4 I2 O1,3.9207,3.7058,0.064595982
JVASP-50608,Mg2 Ti1 O4,3.9246,3.9246,0.064009925
JVASP-32465,C1 S2 N1 F5,3.9269,3.9155,0.063789396
JVASP-57366,Sm1 Mo1 Cl1 O4,3.9267,3.7118,0.05985344
JVASP-1297,Na2 Se1,3.9328,3.9328,0.059139617
JVASP-33838,Tb1 Br3,3.9355,3.9355,0.059139617
JVASP-57546,Ba3 In2 Cl2 O5,3.9183,3.4402,0.059098058
JVASP-3258,Ho2 Se1 O2,3.9255,3.6311,0.058316343
JVASP-11192,Na1 Ge2 N3,3.9333,3.8184,0.057088653
JVASP-11782,Rb2 Li1 V1 O4,3.9367,3.9367,0.053509725
JVASP-52373,Ba1 Y1 Br5,3.9379,3.9182,0.053191873
JVASP-34197,K1 N1 O2,3.9376,3.8705,0.052427125
JVASP-1816,K1 Ho1 S2,3.9292,3.2984,0.051816291
JVASP-3840,In1 Br1 O1,3.9415,3.7317,0.050125384
JVASP-12694,V1 Fe1 H2 O5,0.0142,-0.1836,0.050072461
JVASP-7630,B1 As1,3.8779,1.9344,0.049642881
JVASP-12773,Li6 Br3 N1,3.9453,3.9453,0.048110485
JVASP-24261,Rb2 Mo3 O10,3.9477,3.9477,0.048110485
JVASP-45400,Ca1 P1 S3,3.9424,3.8922,0.047383034
JVASP-53125,Na1 Cl1 O2,3.9451,3.8848,0.04723668
JVASP-22643,Si1 C1,3.92,2.8487,0.046724859
JVASP-40829,V1 In1 Pt1,0.0049,-0.1949,0.045657737
JVASP-5344,Sb1 Br3,3.9437,3.716,0.044811504
JVASP-49927,Bi2 Se1 O6,3.9465,3.7117,0.044708662
JVASP-12768,Na3 Pa1 F8,3.9486,3.9486,0.043163543
JVASP-33819,Dy1 Br3,3.9498,3.9498,0.043163543
JVASP-52196,Li1 Ag1 F2,3.9514,3.9436,0.043062192
JVASP-7779,Sm1 Sn1 Au1,0.9208,0.1733,0.042146455
JVASP-2664,Al2 Zn1 Se4,3.9526,3.8626,0.041994681
JVASP-37037,Ti1 Al1 Fe1 Co1,0,-0.2035,0.041982586
JVASP-18889,Zr1 O1,0.4889,0.1298,0.041377653
JVASP-29048,Te3 Mo1 W1 S1,0.4951,0.128,0.039464504
JVASP-36973,K1 Ge1 Br3,3.961,3.9479,0.038567594
JVASP-53581,Mg1 P1 S3,3.957,3.9421,0.038546673
JVASP-26822,Rb1 Na1 Ti1 O3,3.9579,3.9303,0.038398857
JVASP-44142,Li2 Mn1 Si1 O5,0.0047,-0.202,0.038339769
JVASP-41948,Rb2 Zr2 O5,3.9493,3.4891,0.037189535
JVASP-30513,Cu1 O2 F1,0.4404,0.1206,0.036721974
JVASP-4627,Tl1 Te3 Pt2,0.5676,0.1339,0.036004704
JVASP-40687,Cr1 Co3 O8,0,-0.2088,0.035685777
JVASP-7991,Zn1 O1,3.9349,2.5564,0.034583829
JVASP-12974,Pr2 N1 Cl3,3.9648,3.9648,0.034281315
JVASP-29244,Sb4 Br2 O5,3.9555,3.5429,0.033920033
JVASP-1729,Cd1 C1 N2,3.9643,3.9283,0.033910706
JVASP-54670,Cd1 H2 O2,3.9643,3.9172,0.033796436
JVASP-28842,Te2 Mo1 W3 Se2 S4,0.5661,0.1319,0.032786444
JVASP-29804,Cd1 H2 O2,3.9603,3.3705,0.031860224
JVASP-37172,Na1 Dy1 S2,3.9584,3.2739,0.030759925