JID,Formula,Dir.gap (eV),Indir. gap (eV),Eff (%)
JVASP-28769,Mo1 W1 Se2 S2,0.222,-4.6853,0
JVASP-28775,Mo1 Se2,1.5919,-8.5067,0
JVASP-28797,Te1 Mo2 Se2 S1,-0.0717,-0.0717,0
JVASP-28804,Te2 Mo3 W1 S6,-0.992,-0.992,0
JVASP-28817,Te2 W2 Se1 S1,-0.0156,-0.0157,0
JVASP-28864,Mo1 W3 Se6 S2,1.0721,-7.7049,0
JVASP-28866,Te6 Mo1 W3 Se2,0.2616,-0.1821,0
JVASP-28872,Te1 W2 Se1 S2,0.9876,-9.4752,0
JVASP-28876,W2 Se3 S1,0.9977,-8.5092,0
JVASP-28898,Te2 Mo1 W3 Se4 S2,-0.0963,-0.194,0
JVASP-28931,Te2 Mo1 W3 Se4 S2,-0.108,-0.1386,0
JVASP-28934,Te2 Mo1 W1 Se1 S1,-0.2091,-0.2091,0
JVASP-28957,Te2 Mo1 W3 S6,-0.0388,-0.0493,0
JVASP-28983,Te2 Mo1 W3 Se2 S4,-0.4565,-0.4565,0
JVASP-28994,Te4 Mo1 W3 Se2 S2,-0.7019,-1.2216,0
JVASP-29037,Te2 Mo1 W1 Se1 S1,-0.4386,-0.4386,0
JVASP-29093,Te6 Mo3 W1 S2,-0.1391,-0.1577,0
JVASP-29105,Te8 Mo3 W1,0.4634,0.0596,0
JVASP-29187,Te2 Mo1 W1 Se1 S1,-0.1973,-0.2343,0
JVASP-29192,Te4 Mo3 W1 Se4,-0.0556,-0.0556,0
JVASP-29213,C1,1.00E-04,-0.8841,0
JVASP-29222,Bi1 Te1,-0.0343,-0.0343,0
JVASP-29257,Te3 Se1 O8,4.4632,4.3816,0
JVASP-29325,Y1 Cl1,-0.0323,-0.0324,0
JVASP-29333,Tl1 Cu1 P1 O4,-0.0371,-0.1275,0
JVASP-29344,P2 Pb3 O8,4.951,4.9044,0
JVASP-29375,Cd1 Bi1 Cl1 O2,4.6128,4.3707,0
JVASP-29400,Y2 Te5 O13,4.6011,4.5809,0
JVASP-29408,Pb2 S1 O5,4.9213,4.7595,0
JVASP-29411,Tm2 Te5 O13,4.6661,4.5885,0
JVASP-8344,Y1 Sn1 F5,4.6997,3.9984,0
JVASP-8346,Ca1 Co1 F6,-0.0875,-0.1589,0
JVASP-8382,Y1 Cr1 F5,-0.0435,-0.0703,0
JVASP-8386,Y1 V1 F5,-0.0261,-0.0846,0
JVASP-8464,Rb1 Pb1 F3,4.6252,4.6252,0
JVASP-8587,Tb1 Cl3,4.9455,4.8299,0
JVASP-8596,Na1 Be1 H3,5.9937,3.1115,0
JVASP-8602,Rb1 Ca1 H3,4.9363,4.9363,0
JVASP-8607,K1 H2 N1,4.7096,4.7043,0
JVASP-8608,Rb2 Ca1 H4,4.9306,4.9306,0
JVASP-8650,Li1 Cu1 P1 O4,-0.0009,-0.1188,0
JVASP-8664,S1 O2,4.5262,4.2377,0
JVASP-8678,Ba1 P4 Pd2,-0.0601,-0.7299,0
JVASP-8679,Li2 Mg1 Br4,6.52,6.52,0
JVASP-8683,Ba2 Pd1 O3,0.6138,0.0867,0
JVASP-29418,Dy2 Te5 O13,4.5605,4.5352,0
JVASP-29546,Cr1 I2,0.0125,-0.4311,0
JVASP-29599,Mn1 Br2,-0.025,-0.257,0
JVASP-29602,Zn1 Br2,5.0744,4.9603,0
JVASP-29700,Te1 Pd1 I2,0.7366,0.014,0
JVASP-29709,C1,5.036,3.7624,0
JVASP-29780,Cd1 In1 Ga1 S4,-0.0985,-0.1161,0
JVASP-29799,Zn1 H2 O2,4.6015,4.4332,0
JVASP-29800,Zn1 H2 O2,4.6053,4.4168,0
JVASP-29861,Co1 H2 O2,0.0052,-0.378,0
JVASP-29915,Cd1 H1 Cl1 O1,4.5842,4.5842,0
JVASP-29924,Th6 Fe1 Br15,-0.0111,-0.3482,0
JVASP-29983,Ta1 O1 F3,4.5954,4.5395,0
JVASP-30145,Co1 P1 H6 O6 F1,-0.0364,-0.1016,0
JVASP-30154,Co1 H6 Se2 O8,-0.0026,-0.059,0
JVASP-30163,Bi1 O1 F1,4.9404,4.8174,0
JVASP-30166,Ho1 I1 O1,4.8372,4.6055,0
JVASP-30175,Y1 I1 O1,4.7213,4.2737,0
JVASP-30185,Sm1 I1 O1,5.046,4.9608,0
JVASP-30198,Cu1 Te1 O4,-0.1803,-0.402,0
JVASP-30201,Mg2 Sn1 O4,4.6551,4.6551,0
JVASP-30210,Cu1 H4 I2 O8,-0.0025,-0.0312,0
JVASP-30217,Ga1 H5 N2 F2,4.9225,4.9186,0
JVASP-30261,Mn2 O1 F4,0.0813,-0.3613,0
JVASP-30266,W1 O2 F2,4.537,3.3832,0
JVASP-30328,Mg1 I2 O6,4.511,4.4726,0
JVASP-30337,Co5 Bi1 O12,-0.0284,-0.1567,0
JVASP-30378,Hf1 Sn1 O3,4.5697,3.8457,0
JVASP-30436,Co5 Sn1 O12,-0.0706,-0.2238,0
JVASP-30444,Mg1 H4 N2 O8,4.7828,4.7828,0
JVASP-30455,Co2 Sb1 O6,-0.0418,-0.1294,0
JVASP-30472,Lu1 I1 O1,4.8512,4.4861,0
JVASP-30490,Cr1 Ga2 S4,-0.012,-0.4949,0
JVASP-30603,Ta1 F5,4.8682,4.8646,0
JVASP-30609,Mg1 Sn1 F4,4.7147,4.7094,0
JVASP-30614,Mg1 Cr1 F4,-0.0578,-0.0638,0
JVASP-30637,Y1 Sn1 F5,4.6996,3.9985,0
JVASP-30668,Y1 Cr1 F5,-0.0324,-0.049,0
JVASP-31829,Co1 Sn1 H12 O6 F6,-0.015,-0.0249,0
JVASP-31839,Co1 C4 O4,-0.0102,-0.0787,0
JVASP-31920,Fe1 Se1 Br7,-0.0009,-0.0223,0
JVASP-31963,Re1 Se2 Cl12,-0.0003,-0.0274,0
JVASP-32164,Pb1 C1 O3,4.9299,4.868,0
JVASP-32220,Mo1 Cl3 O1,-0.0275,-0.0313,0
JVASP-32228,Ni1 Sn1 H12 O6 F6,-0.0069,-0.0326,0
JVASP-32531,Tl1 H1 C1 O2,4.7713,4.6659,0
JVASP-33058,H1 O1 F1,4.778,4.778,0
JVASP-33808,Pm1 Cl3,4.8642,4.8642,0
JVASP-33814,Ho1 Cl3,4.4381,4.4381,0
JVASP-33825,Ti1 H8 N2 F6,4.7894,4.7617,0
JVASP-33845,Sm1 Cl3,4.8823,4.8823,0
JVASP-34069,Te1 Mo1 S1,-0.0377,-0.0968,0
JVASP-47535,Rb2 Co1 O3,-0.0132,-0.073,0
JVASP-47637,Li1 Co1 P1 O4,-0.0065,-0.0406,0
JVASP-47705,Li1 V1 H2 O1 F5,-0.0421,-0.0566,0
JVASP-47737,Bi1 O1 F1,4.8179,4.7578,0
JVASP-47741,Nb1 O1 F3,4.6828,4.6796,0
JVASP-47983,Li2 Fe2 Co1 O6,-0.0059,-0.0568,0
JVASP-48117,Li2 Fe3 Te1 O8,-0.0005,-0.0449,0
JVASP-48128,Li2 Mn1 F4,-0.0164,-0.0167,0
JVASP-48276,Li1 Mn1 P3 O9,-0.0077,-0.0261,0
JVASP-48311,Li4 Mn1 F7,-1.00E-04,-0.0422,0
JVASP-48314,Li6 Mn1 O2 F4,-0.0325,-0.0386,0
JVASP-48424,Li5 Co1 O3 F1,-0.0173,-0.08,0
JVASP-48466,Li1 Co5 O7 F1,-0.0459,-0.2517,0
JVASP-48708,Na2 Co1 O3,-0.0018,-0.076,0
JVASP-49752,Sr1 O1,5.0334,4.7686,0
JVASP-49782,Ba2 Hf1 O4,5.0983,4.9183,0
JVASP-49796,Zr1 O2,4.7118,4.4807,0
JVASP-49806,Ca1 Tm2 O4,5.0468,4.962,0
JVASP-49833,Sr1 Ca2 I6,4.5962,4.5061,0
JVASP-49884,Hf3 N2 O3,4.7194,4.5843,0
JVASP-49898,Sr2 Ca1 I6,4.6525,4.528,0
JVASP-49919,Na1 La1 O2,4.4986,4.334,0
JVASP-49943,Sn1 Bi1 O4,-0.312,-0.7088,0
JVASP-49944,Ta1 As1 O4,4.8905,4.7135,0
JVASP-49947,Na2 Ir1 O3,-0.068,-0.247,0
JVASP-49952,Ba1 Sr1 I4,4.4647,4.4574,0
JVASP-49957,Li2 Rh1 O3,-0.0004,-0.1169,0
JVASP-49983,Hf1 Zr1 O4,5.0927,4.9857,0
JVASP-50004,Li5 Ta1 O5,5.0629,4.9611,0
JVASP-50007,Sr1 Ca2 I6,4.5659,4.5659,0
JVASP-50033,Ba1 Y1 Cl5,4.8576,4.8364,0
JVASP-50034,Na6 Mg1 O4,4.7873,4.7873,0
JVASP-50035,Zr1 O2,4.8917,4.6384,0
JVASP-50083,Li1 Bi1 B2 O5,5.2297,4.8753,0
JVASP-50097,Sc2 O3,4.98,4.9053,0
JVASP-50102,Sc1 H1 O2,5.2738,4.9733,0
JVASP-50108,Lu1 Ga1 O3,4.7384,4.532,0
JVASP-50131,Ba1 Na2 O2,4.8658,4.8059,0
JVASP-50139,Na2 O1,4.7031,4.7031,0
JVASP-50259,Rb2 O1,4.5232,4.4943,0
JVASP-50276,Tb1 Nb1 O4,4.7289,4.7289,0
JVASP-50312,Li2 O1,4.6432,4.4349,0
JVASP-50361,Tb1 Ta1 O4,5.0598,4.9437,0
JVASP-50378,Sr2 Ca1 I6,4.4692,4.4692,0
JVASP-50390,Er3 Ta1 O7,4.4895,4.4828,0
JVASP-50425,Er3 Ta1 O7,4.6914,4.6751,0
JVASP-50442,K2 Sr2 O3,4.732,4.6926,0
JVASP-50456,Li1 Cu1 Si2 O5,-0.1779,-0.1887,0
JVASP-50492,Sr2 Ca1 I6,4.6526,4.6526,0
JVASP-50521,Er1 Ta3 O9,4.6269,4.5463,0
JVASP-50540,Ba1 Ca1 I4,4.7198,4.6805,0
JVASP-50544,Al1 Ga1 O3,4.6559,4.6559,0
JVASP-50610,Li1 Si1 Bi1 O4,4.7683,4.7683,0
JVASP-50615,Ba1 Ca2 I6,4.67,4.619,0
JVASP-50622,Rb3 Er1 O3,4.5939,4.5939,0
JVASP-50650,Sc2 Ge2 O7,4.4726,4.4602,0
JVASP-50694,Li2 Cu1 F4,-0.0041,-0.1232,0
JVASP-50712,Li3 Sb1 P2 O8,-0.5207,-0.6351,0
JVASP-50742,Yb1 Al1 O3,-0.0001,-0.4849,0
JVASP-50815,Li5 In1 O4,4.8158,4.8158,0
JVASP-50827,Ba1 Ca1 I4,4.5137,4.5066,0
JVASP-50841,Mg1 Ga2 O4,4.506,4.506,0
JVASP-50884,Sc1 Bi1 O3,4.4702,4.3931,0
JVASP-50919,Sr1 As2 O6,4.9838,4.7412,0
JVASP-50923,Ba3 Hf2 O7,5.2081,4.9807,0
JVASP-50930,Rb3 Y1 O3,4.8735,4.7707,0
JVASP-50940,Sc1 Ga1 O3,4.7502,4.6552,0
JVASP-50953,Ba2 Sr1 I6,4.6068,4.4841,0
JVASP-50964,Ba1 Sr2 I6,4.8694,4.781,0
JVASP-52247,Bi1 O1 F1,4.8088,4.7184,0
JVASP-52260,Li5 Cu1 F8,-1.00E-04,-0.0831,0
JVASP-52295,Bi1 O1 F1,4.739,4.6393,0
JVASP-52299,Ta1 Ga1 O4,4.7336,4.7086,0
JVASP-52302,Li1 Ag2 F4,-0.0227,-0.1249,0
JVASP-52317,Na1 Be1 O2,4.7811,4.7811,0
JVASP-52326,Bi1 O1 F1,5.1282,4.9969,0
JVASP-52432,K2 Mn1 H2 O1 F5,-0.0675,-0.1032,0
JVASP-52437,Co1 P1 H6 N1 O5,-0.0387,-0.0516,0
JVASP-52495,K3 Na1 Fe1 Cl6,-0.1345,-0.1416,0
JVASP-52526,Li2 Cu1 Si1 O4,-0.0223,-0.176,0
JVASP-52550,Sm3 Ta1 O7,4.7765,4.5509,0
JVASP-52768,K2 Na1 V1 O1 F5,4.6552,4.6552,0
JVASP-52780,K3 Re1 H6,-0.0046,-0.1221,0
JVASP-52861,H1 Pb1 Cl1 O1,4.7325,4.6123,0
JVASP-52889,Sr1 H4 N2,4.8498,4.802,0
JVASP-53146,K1 N1 O3,4.4359,4.3311,0
JVASP-53414,Tl1 Bi1 F4,4.6829,4.4168,0
JVASP-54794,Sm1 Ag1 Pb1,0.0545,-0.6265,0
JVASP-54839,K2 Mn1 Nb6 Cl18,-0.0249,-0.0334,0
JVASP-54860,Y1 Cd3,0,-1.1623,0
JVASP-54955,K1 Mn1 Ag3 C6 N6,-0.0503,-0.1196,0
JVASP-55212,K1 Bi1 F4,4.578,4.578,0
JVASP-55214,Sm1 I2,-0.1343,-0.4025,0
JVASP-56308,Nd1 In1 Ag2,0,-1.0188,0
JVASP-56323,Ba1 N3 Cl1,5.0315,4.9442,0
JVASP-56327,Y1 In1 Ag2,0,-1.2359,0
JVASP-56364,Hf1 Cu1 P1,0.1175,-0.5687,0
JVASP-56687,K1 Na3 W1 O5,4.7638,4.7509,0
JVASP-56716,Yb1 Rh1,0,-1.1553,0
JVASP-56757,Sr1 Si6 N8,4.8461,4.4462,0
JVASP-56834,Ho7 Fe1 I12,-0.0003,-0.114,0
JVASP-56838,Pa1 C1,0.0008,-0.9571,0
JVASP-56995,Nb1 Co1 Sn1,0.0744,-0.3522,0
JVASP-55253,K6 Mn1 Se4,-0.0035,-0.0638,0
JVASP-55301,Ca2 Co1 Si2 O7,-0.0016,-0.0017,0
JVASP-55509,Pb1 C1 O3,4.93,4.8682,0
JVASP-55606,Li1 I1 O3,4.5991,4.599,0
JVASP-57036,Sr2 Co1 Cl2 O2,0.0015,-0.9565,0
JVASP-57040,Ba1 Zr1 P2 O8,4.5287,4.4948,0
JVASP-57047,Mg1 Se1 O4,4.8378,4.7784,0
JVASP-57048,Rb2 Na1 V1 F6,-0.0021,-0.0271,0
JVASP-57068,Zr1 Cu1 F6,-0.0046,-0.2612,0
JVASP-57079,Rb2 Na1 Cr1 F6,-0.0092,-0.0272,0
JVASP-57095,K1 Rb2 Fe1 F6,-0.0013,-0.036,0
JVASP-57102,Ga1 I3 O9,4.6221,4.5165,0
JVASP-57128,Te1 O2,4.6677,4.6446,0
JVASP-57133,Li1 Pr2 C2 N4 F3,4.9361,4.8576,0
JVASP-57148,Na1 Zr2 Mn1 F11,-0.0107,-0.0475,0
JVASP-57158,Zr1 Tl1 Cd1 F7,4.9189,4.8956,0
JVASP-57181,Co1 Sn1 F6,-0.053,-0.0692,0
JVASP-57184,Mg2 Bi1 As1 O6,5.2283,4.9971,0
JVASP-57215,K1 V1 S2 O8,-0.0343,-0.0343,0
JVASP-57227,Yb1 Bi2 Cl1 O4,-0.1169,-0.4201,0
JVASP-57322,Li1 Ca1 Cr1 F6,-0.0531,-0.0531,0
JVASP-57370,Rb1 Nd1 W2 O8,4.4719,4.4437,0
JVASP-57410,K1 Cr1 F3,-0.0003,-0.6805,0
JVASP-57448,Sc2 O3,4.6902,4.5037,0
JVASP-57521,Ga1 Mo4 S8,-0.0006,-0.1406,0
JVASP-57534,Rb3 Cr1 F7,-0.0035,-0.006,0
JVASP-57550,Rb3 Mn1 F7,-0.0131,-0.0131,0
JVASP-57571,K2 Mn1 F6,-0.0141,-0.0403,0
JVASP-57630,Rb2 Cr1 F6,-0.0049,-0.0088,0
JVASP-57702,Ga1 Mo4 S8,-0.0008,-0.1408,0
JVASP-57708,Na6 Co1 Se4,-0.0063,-0.073,0
JVASP-57951,Y1 Cu3 Sn4 O12,-0.0031,-0.098,0
JVASP-58191,Fe1 W2 O8,-0.0404,-0.0902,0
JVASP-58331,Na2 Li1 Al1 F6,-0.1489,-0.1819,0
JVASP-58395,La1 F3,4.6009,4.5565,0
JVASP-58482,Ca1 Fe2 S4,-0.0102,-0.0787,0
JVASP-59606,Ba2 Yb1 Nb1 O6,-0.0039,-0.3295,0
JVASP-59630,Rb2 Fe1 Cu1 C6 N6,-0.0358,-0.1361,0
JVASP-58930,Ba1 Re1 H9,4.8012,4.8012,0
JVASP-59073,Sc1 I3 O9,4.925,4.9129,0
JVASP-59147,Bi1 B1 O3,4.5232,4.5232,0
JVASP-59246,Ta1 Ga1 O4,4.5585,4.4789,0
JVASP-8708,Ho1 Sn1 Au1,0.9845,0.1085,0
JVASP-8743,Ti1 Al1 Fe2,0,-0.9353,0
JVASP-8770,Cu1 I4,0.015,-0.4366,0
JVASP-8805,Li2 H1 N1,4.6875,3.9577,0
JVASP-22930,Sr3 Sc1 B3 O9,5.2201,5.1885,0
JVASP-22944,K1 Ga1 S2,4.6008,4.5742,0
JVASP-23186,Ba1 Co1 O3,-0.0047,-0.4341,0
JVASP-23696,Mn1 Te2,-0.0174,-0.2246,0
JVASP-23872,Nb1 Se1 I1,-0.0005,-0.0303,0
JVASP-24017,Li1 H1 F2,-0.0177,-0.0177,0
JVASP-24245,Na1 Zr2 Cu1 F11,-0.0026,-0.0081,0
JVASP-24251,Na9 Zr1 P4 Cl1 O16,4.5519,4.5114,0
JVASP-24259,Ba1 Bi1 B1 O4,4.6541,4.582,0
JVASP-24272,Nd2 Ta2 Cl2 O7,4.4327,4.2273,0
JVASP-24288,Er2 Te5 O13,4.7372,4.6989,0
JVASP-24301,Sr1 Bi2 B4 O10,4.9561,4.9561,0
JVASP-24305,I1 O1 F3,5.5921,5.4301,0
JVASP-24307,Sb1 Te1 Cl1 O3,4.6245,4.6139,0
JVASP-24318,Pr2 Zr2 O7,4.7102,4.6833,0
JVASP-42609,Li1 Fe1 F4,-0.021,-0.0333,0
JVASP-43020,Li4 Cr2 P4 H3 O16,-0.0092,-0.039,0
JVASP-60623,Ge3 Sb2 O9,5.1702,4.9598,0
JVASP-60671,Co1 Cl2 O8,-0.0617,-0.0799,0
JVASP-64134,Ba4 W1 Cl1,-0.0307,-0.1764,0
JVASP-64276,Ba4 Te1 Mo1,-0.007,-0.1372,0
JVASP-64314,Ba4 V1 Se1,-0.022,-0.1976,0
JVASP-64320,Ba4 Ca1 V1,-0.0189,-0.4035,0
JVASP-64330,Ba4 Y1 Pd1,-0.1243,-0.3195,0
JVASP-64391,Ba4 Mo1 Se1,-0.0581,-0.1961,0
JVASP-64565,K1 Ba1 Cl1,-0.0069,-0.1731,0
JVASP-64686,Ba4 V1 Cl1,-0.0202,-0.152,0
JVASP-64715,Ba4 Mo1 Cl1,-0.2159,-0.2505,0
JVASP-64752,Ba4 Mo1 Br1,-0.1619,-0.2673,0
JVASP-64890,Be1 Cu4 Rh1,0.0764,-1.1747,0
JVASP-64895,Be2 Fe1 Mo1,0.6961,-0.0596,0
JVASP-65277,Na4 Sc1 Be1,0,-0.3059,0
JVASP-65280,Be1 Ga4 W1,1.1372,-0.9382,0
JVASP-65309,Be1 In4 Mo1,0.4735,-0.8462,0
JVASP-60941,Te1 As1 H1 O5,4.8771,4.833,0
JVASP-61305,Mg2 B1 Br1 N2,5.2819,4.9735,0
JVASP-61629,Ca1 As2 O6,5.0593,4.8142,0
JVASP-62279,P1 Au1 Cl1 F3,4.7412,4.4433,0
JVASP-62464,Ca1 As2 O6,5.0595,4.8145,0
JVASP-62561,Zr1 B1 Rh3,0,-1.0816,0
JVASP-62575,Sr2 B1 Br1 N2,4.5328,4.1536,0
JVASP-62848,Sr2 Cu1 B2 O6,-0.0001,-0.0487,0
JVASP-24924,K1 Ga1 As2 O7,4.6664,4.6206,0
JVASP-24947,Rb2 Na1 Mn1 F6,-0.0018,-0.0321,0
JVASP-24951,Rb2 Na1 Fe1 F6,-1.00E-04,-0.047,0
JVASP-24958,Rb2 Mn1 F6,-1.00E-04,-0.0064,0
JVASP-24999,Ba2 In1 Cl1 O3,5.0145,4.8935,0
JVASP-25001,Pr1 Ta3 O9,4.4349,4.3435,0
JVASP-25009,Sr1 Cr1 F4,-0.0269,-0.0284,0
JVASP-25012,Zn3 Te1 As2 Pb3 O14,4.5337,4.4872,0
JVASP-25017,K1 Na1 Pr1 Nb1 O5,4.4288,4.4282,0
JVASP-25022,Nd5 As2 Cl1 O10,4.925,4.7482,0
JVASP-25592,Zr1 V1 F6,-1.00E-04,-0.4089,0
JVASP-25625,K1 Rb2 V1 F6,-0.0088,-0.0136,0
JVASP-25629,Ca1 Mn1 F5,-0.0312,-0.0525,0
JVASP-25638,Na1 Zr2 Co1 F11,-0.0901,-0.0956,0
JVASP-25799,Ca1 Cr1 F5,-0.0382,-0.0747,0
JVASP-25843,K1 Rb2 Cr1 F6,-1.00E-04,-0.0197,0
JVASP-25844,Rb2 Al2 Sb2 O7,4.9394,4.8936,0
JVASP-25886,K2 Na1 Mo1 F6,-1.00E-04,-0.0444,0
JVASP-25917,Rb1 Al1 As2 O7,4.8275,4.792,0
JVASP-26103,Tb1 Rh3 C1,0,-1.3244,0
JVASP-26328,Sc1 As1 O4,4.8668,4.8668,0
JVASP-26348,Sr1 Bi1 Cl1 O2,4.8613,4.8613,0
JVASP-26375,Cd1 Bi1 Cl1 O2,4.6215,4.3788,0
JVASP-26385,Sr2 I2 O1,4.6395,4.4648,0
JVASP-26398,Yb1 Bi2 Br1 O4,-0.0708,-0.3263,0
JVASP-26417,Ca1 Bi1 Cl1 O2,5.0305,4.9154,0
JVASP-26494,K1 Rb2 Mo1 F6,-0.0004,-0.036,0
JVASP-26510,K2 Na1 Cr1 F6,-0.0053,-0.0239,0
JVASP-26682,K3 Co2 F7,-0.221,-0.4633,0
JVASP-26756,Al1 I3 O9,4.6691,4.6362,0
JVASP-26765,Dy2 Te5 O13,4.5413,4.5187,0
JVASP-26813,Na1 Zr2 Fe1 F11,-0.014,-0.017,0
JVASP-26814,Ba1 Zr1 P2 O8,4.8681,4.8681,0
JVASP-26975,Fe1 Cu1 O2,0.0005,-0.657,0
JVASP-31206,Mg1 Ga2 O4,4.5385,4.5385,0
JVASP-128,Pt1 Se2,0.8195,-0.063,0
JVASP-4831,Sr2 Si1,0.0931,-0.22,0
JVASP-4849,Al1 N1,4.4288,4.4288,0
JVASP-15,Zr1 Te1,0,-0.3039,0
JVASP-4180,Hg1 Cl2,4.4379,4.4379,0
JVASP-167,Mg1 I2,5.1291,4.821,0
JVASP-173,B1 Br3,5.1972,4.872,0
JVASP-5275,K3 Al1 H6,4.8473,4.5125,0
JVASP-350,Zr1 O2,4.6606,4.6002,0
JVASP-4201,Cr1 I2,-0.0093,-0.2047,0
JVASP-5317,Cu1 C1 O3,0.0713,-0.1842,0
JVASP-5473,Zr1 Fe1 Cl6,-0.0126,-0.03,0
JVASP-5524,S1 Cl2 O1,4.8312,4.8181,0
JVASP-5539,Sm4 Cl6 O1,-0.0237,-0.0237,0
JVASP-5605,Sr4 Nb2 O9,4.4293,4.3713,0
JVASP-4237,Ga1 Br3,4.5776,4.5574,0
JVASP-323,Ti1 S2,0.5079,0.0482,0
JVASP-4633,Cd1 P1 S3,4.513,4.1764,0