JID,Formula,Dir.gap (eV),Indir. gap (eV),Eff (%)
JVASP-51740,Yb1 Mg1 Ni1 H4,2.4055,2.2823,13.58903822
JVASP-37879,Ca3 Sn1 H2,0.4681,0.4681,13.5782965
JVASP-25100,Ge1,0.4683,0.4683,13.57829648
JVASP-24769,Rb1 As1 Se2,2.4355,2.3847,13.57510557
JVASP-35808,Ca1 Be2 As2,1.8275,1.112,13.57442338
JVASP-49939,Hf2 N2 O1,2.3168,2.0024,13.5678693
JVASP-31163,Tm1 Cu1 Se2,2.1535,1.612,13.56441137
JVASP-8458,In1 Cu1 O2,0.9881,0.5934,13.55818733
JVASP-22623,Zn1 S1,0.4698,0.4698,13.54850795
JVASP-10261,Li8 Ce1 O6,2.4547,2.4547,13.54057428
JVASP-29519,V1 Pb1 Cl1 O3,2.4076,2.2882,13.53212587
JVASP-9599,Ag3 As1 S3,2.2759,1.8911,13.53001237
JVASP-26403,Ba2 Tb1 Bi1 O6,2.4507,2.4475,13.51912411
JVASP-41881,Sc1 S2,0.7409,0.5255,13.51157693
JVASP-22533,I1 F7,2.4336,2.3713,13.49509059
JVASP-12666,V1 Bi1 O4,2.4408,2.4037,13.48460976
JVASP-25634,Ba2 Ca1 U1 O6,2.452,2.4414,13.46949615
JVASP-12500,Ag1 Hg1 S1 I1,2.4466,2.4208,13.46762555
JVASP-3732,Sr2 H6 Ru1,2.4392,2.3836,13.44713159
JVASP-10487,Li4 Np1 O5,2.4403,2.3805,13.41817962
JVASP-17841,In1 N1,1.4283,0.7786,13.4088962
JVASP-32986,I1 F7,2.4402,2.3779,13.40092463
JVASP-9705,Re1 Te1 S1,0.8949,0.5655,13.39904728
JVASP-22666,Os1 Cl4,2.3289,2.018,13.39696569
JVASP-22664,Se1 Br1,2.3026,1.9446,13.396009
JVASP-8368,Sr2 Zn1 Cu2 S2 O2,2.3796,2.1672,13.36899791
JVASP-9642,Sb1 O2,2.4149,2.2819,13.35241135
JVASP-11375,K2 Nb1 Ag1 S4,2.4463,2.402,13.34235926
JVASP-29211,Te2 Mo3 W1 Se4 S2,0.6529,0.5026,13.32992009
JVASP-10582,Y1 P5,1.1909,0.664,13.31856667
JVASP-8198,Hg1 S1,2.4466,2.3984,13.31593557
JVASP-5827,Cu1 Se2 Cl1,0.6556,0.5032,13.30209619
JVASP-10227,Tl1 P1 S3,2.4512,2.4144,13.29376025
JVASP-53462,Er1 Cu1 Se2,2.1444,1.5678,13.2891527
JVASP-3945,Ca3 As1 Cl3,2.4692,2.4692,13.25799933
JVASP-11664,Cr1 Cd1 O4,2.4679,2.4679,13.25799933
JVASP-49917,Ti1 O2,2.4671,2.4671,13.25799933
JVASP-53347,In2 S3,2.4688,2.4688,13.25799933
JVASP-39436,Nd1 Cu1 Te1 O1,2.3189,1.9734,13.23327592
JVASP-8811,Ho2 Cd1 S4,2.2364,1.7578,13.22342242
JVASP-13004,Cd2 P3 I1,2.2145,1.7097,13.2182033
JVASP-28576,Te4 W3 Se2,0.4611,0.4611,13.20306978
JVASP-840,Br1,2.4624,2.4376,13.19201312
JVASP-62285,Na1 H12 Au1 C4 S4 O12,2.4681,2.4577,13.19012882
JVASP-1195,Zn1 O1,2.4728,2.4728,13.16606234
JVASP-8087,Rb1 Cu1 C2,2.4744,2.4744,13.16606234
JVASP-12943,Si2 Hg6 O7,2.3267,1.9876,13.16047315
JVASP-35453,Sm2 Al1 N1 O3,2.4591,2.4146,13.14807558
JVASP-29969,Cd2 Bi6 O11,2.4565,2.4092,13.12946693
JVASP-57226,Cr1 O3,2.4545,2.3907,13.11266463
JVASP-34266,Al1 P1 O4,2.3922,2.1731,13.09498575
JVASP-3246,Cd1 Ga2 Te4,2.2896,1.8768,13.08864355
JVASP-53498,Dy1 Cu1 Se2,2.1249,1.5129,13.07685361
JVASP-32309,Ta1 Te1 Br9,2.4687,2.4409,13.07659554
JVASP-59039,Ta1 Te1 Br9,2.4692,2.4404,13.07007029
JVASP-9563,Zn2 Bi2 O5,2.4683,2.4376,13.05768661
JVASP-51709,Na4 H6 Ru1,2.4712,2.4534,13.05101552
JVASP-25633,K1 Au1 I4 O12,2.4699,2.4516,13.04776508
JVASP-1975,Ca2 P1 I1,2.385,2.1487,13.03286407
JVASP-8689,U1 C1 O5,2.4562,2.3879,12.98993312
JVASP-51428,Ca2 P1 I1,2.3909,2.1562,12.97798076
JVASP-10773,K1 Pr1 Te4,1.7108,0.966,12.96374409
JVASP-3636,As1 I3,2.4674,2.4218,12.96050813
JVASP-36702,Ca1 Tc1 N3,0.6119,0.4904,12.92948882
JVASP-30659,Zn1 Sb4 O8,2.4753,2.4527,12.92912348
JVASP-1207,Cd1 As2,1.5706,0.8553,12.92306998
JVASP-10586,Ta1 Ag1 O3,2.4677,2.4138,12.90635804
JVASP-12961,Hg2 P3 Cl1,2.3021,1.8882,12.90579946
JVASP-13067,Tl1 B1 Se3,2.2945,1.867,12.90395788
JVASP-37353,Sn1 Br2,2.3964,2.1591,12.88823681
JVASP-2658,Rb2 Sn2 O3,2.4851,2.4851,12.88064044
JVASP-28393,Cd1 S1,2.4316,2.2803,12.87591339
JVASP-3000,Ba1 Mg2 Sb2,1.9889,1.2753,12.85974804
JVASP-2685,Rb2 Pt1 S2,2.2293,1.7019,12.84709382
JVASP-38043,Y1 W1 N3,2.3851,2.1238,12.84395486
JVASP-9920,Ca1 Bi2 O4,2.3828,2.1099,12.82996409
JVASP-33995,Te7 Mo6 S5,0.4554,0.4543,12.8197507
JVASP-1684,Nb1 Fe1 Sb1,1.3716,0.7263,12.81378682
JVASP-56691,Hg2 Mo1 O4,2.4553,2.3587,12.80195792
JVASP-36495,Ca3 Bi1 Sb1,0.4536,0.4536,12.79640166
JVASP-2397,Al1 Cu1 S2,2.4907,2.4907,12.78345727
JVASP-8109,Hg1 S1,2.4761,2.427,12.75939443
JVASP-29218,P1 Pb1 Se3,2.4574,2.3537,12.7548022
JVASP-3888,K2 Ti1 Cl6,2.4928,2.4858,12.73991264
JVASP-30519,Al1 P1,2.3253,1.9259,12.71172961
JVASP-8539,Tl1 In1 S2,2.0838,1.4126,12.71143154
JVASP-57819,Na2 Cr1 F4,0.4532,0.4524,12.70626002
JVASP-53435,Sm2 Zn1 S4,2.4954,2.4954,12.68247515
JVASP-44431,Li1 V1 O2 F2,0.5417,0.4652,12.66243207
JVASP-36154,Dy1 Tl1 Te2,1.7879,1.0214,12.641598
JVASP-20635,Te1 O2,1.0736,0.6048,12.60188346
JVASP-11068,Ba1 Be2 N2,2.4835,2.4231,12.59447793
JVASP-54732,H2 W2 O7,2.5041,2.5041,12.58351242
JVASP-30761,Mg1 Ge2 W1 O6,2.5019,2.5019,12.58351242
JVASP-7804,Se1,2.4476,2.2888,12.56727465
JVASP-4993,Ag2 Pb1 O2,2.4378,2.2509,12.5421994
JVASP-35693,Sr1 Cd1 O2,2.4275,2.2161,12.53937155
JVASP-57524,U1 O1 F4,2.5037,2.4962,12.5377655
JVASP-37067,Tb1 Tl1 Te2,1.8383,1.0662,12.51988925
JVASP-10371,Ca1 Sn4 O8,1.8738,1.1046,12.47893537
JVASP-2748,Zn1 Pt1 F6,2.5078,2.5078,12.4776251
JVASP-12452,K2 Pb1 O3,2.5061,2.5061,12.4776251
JVASP-49227,K3 Nb3 B2 O12,2.5075,2.5075,12.4776251
JVASP-61021,Li3 Al1 B2 O6,2.5063,2.4995,12.43662594
JVASP-4391,Te1 O2,1.0663,0.5987,12.43216371
JVASP-10107,Tl2 Ge1 S3,2.4125,2.1509,12.4256952
JVASP-11207,Rb2 Nb1 Ag1 S4,2.495,2.4519,12.41708815
JVASP-10222,Cd1 Pt3 O6,0.4465,0.4465,12.40458005
JVASP-10694,Rb1 Au1 O1,2.4916,2.4268,12.38038642
JVASP-55226,Li7 V1 N4,2.5124,2.5124,12.37946212
JVASP-40208,Ca4 Sn1 S6,2.4674,2.329,12.35534655
JVASP-36124,Ho1 Tl1 Te2,1.813,1.0295,12.35113732
JVASP-26400,Bi2 Se1 O2,1.998,1.2524,12.3449332
JVASP-11671,V2 Zn2 O7,2.4847,2.3969,12.32913908
JVASP-13042,Ge1 Sb4 Te7,0.4448,0.4448,12.31968343
JVASP-40797,Ti1 Sn1 Pd1,0.986,0.5651,12.31722329
JVASP-33813,Ho1 I3,2.5192,2.5192,12.27796699
JVASP-56217,Rb1 Au1 Cl4,2.5156,2.5156,12.27796699
JVASP-5269,Bi1 S1 I1,2.4899,2.4072,12.26908078
JVASP-28572,Te2 W3 Se4,0.4433,0.4433,12.23525806
JVASP-63938,Ba1 Na1 Br1,0.6921,0.4866,12.22789666
JVASP-43520,Cr1 O3,2.4163,2.1252,12.21325089
JVASP-60667,Cu1 Te2 Cl1,0.6658,0.4838,12.21071271
JVASP-12513,I1 O3,2.4913,2.3978,12.20190616
JVASP-40774,Ti1 Si1 Pd1,1.414,0.7293,12.19970098
JVASP-28466,Mo1 W2 Se4 S2,0.4423,0.4423,12.19334985
JVASP-22543,Sr1 Al2 Te4,2.4345,2.1841,12.1869555
JVASP-8003,Cd1 S1,2.5204,2.5204,12.18477244
JVASP-29368,Ba2 Dy1 Bi1 O6,2.5246,2.5246,12.18477244
JVASP-26771,Rb2 U1 Si4 O12,2.5239,2.5233,12.18127393
JVASP-51717,Mg2 H4 Ru1,1.8995,1.1144,12.1576961
JVASP-2763,Ba1 Mg2 As2,2.2163,1.6045,12.13403003
JVASP-31173,Sr1 Al2 Te4,2.4379,2.1883,12.1103842
JVASP-3864,Rb2 Ti1 Cl6,2.5248,2.5114,12.10636853
JVASP-57792,Li2 Ge1 F6,2.518,2.4889,12.10603435
JVASP-3066,Ba1 Ag1 P1,1.0035,0.5671,12.09320983
JVASP-7683,Ho1 S1 F1,2.5291,2.5291,12.08538577
JVASP-12970,Mg3 B1 N3,2.5286,2.5286,12.08538577
JVASP-28779,Te2 Mo3 W1 Se6,0.4404,0.4404,12.06850488
JVASP-2757,Ba1 Mg2 P2,2.252,1.6748,12.06327145
JVASP-36804,Ag1 Pb1 O2,1.1625,0.6174,12.05706593
JVASP-10539,K2 Na1 Ga1 P2,2.5189,2.4798,12.0469517
JVASP-17482,In1 Au1 O2,1.9453,1.1618,12.02768926
JVASP-40816,Na1 Li1 Pt1,0.5849,0.4658,12.00124907
JVASP-34259,V2 Zn1 O6,2.5158,2.4688,12.00027071
JVASP-48089,Li2 V1 Ga3 O8,2.5341,2.5341,11.98060648
JVASP-179,Ge1 I2,2.5332,2.5332,11.98060648
JVASP-36153,Er1 Tl1 Te2,1.8336,1.0308,11.97624583
JVASP-12536,In1 Sn2 Br5,2.5258,2.5054,11.96729423
JVASP-9709,K1 Au1 F4,2.5331,2.5306,11.96627786
JVASP-8754,Ta2 I5,0.6586,0.4782,11.93951947
JVASP-10096,Rb1 Pr1 Te4,1.7339,0.9355,11.93893563
JVASP-275,Pt1 O2,2.3247,1.8326,11.92979932
JVASP-44526,Na3 Cu1 C1 S1 O7,2.5019,2.3938,11.92466571
JVASP-36720,V1 Cu3 Te4,0.8779,0.5336,11.92355654
JVASP-53111,Ag3 S1 I1,2.1123,1.3924,11.90390578
JVASP-49202,Ti1 Cd1 O3,2.5379,2.5379,11.88967688
JVASP-10550,Rb3 B1 As2,2.5203,2.4588,11.82503968
JVASP-8370,Al1 Cu1 S2,2.5454,2.5454,11.79114767
JVASP-13298,Zn2 Sn1 O4,2.5423,2.5423,11.79114766
JVASP-8163,Li1 Tl1 O2,2.0976,1.3555,11.75818468
JVASP-12746,Rb1 Au1 Br3,0.6084,0.4679,11.75583681
JVASP-2682,K2 Pt1 S2,2.3044,1.7588,11.75212451
JVASP-10232,K1 P1 S3,2.5365,2.506,11.71674746
JVASP-30454,Mg2 Pb1 O4,2.5125,2.4002,11.70914256
JVASP-29499,Cd1 Bi1 S2 Br1,2.5496,2.5496,11.70209197
JVASP-36822,Tl1 Cu1 O2,0.4629,0.4359,11.68768852
JVASP-12848,In1 Cu1 O2,0.8899,0.529,11.67319517
JVASP-31153,Na1 Al1 B14,2.4302,2.0939,11.66372919
JVASP-9371,Zn1 Co2 S4,0.4325,0.4324,11.65774195
JVASP-9089,Ca1 P1,1.8702,1.0523,11.65482979
JVASP-4173,Au1 Cl1,2.5366,2.4933,11.64419035
JVASP-36222,Ti1 O2,2.269,1.6668,11.63712364
JVASP-22945,Ho1 Pt1 F7,2.5542,2.5542,11.62548927
JVASP-29744,Pb2 O3,2.1451,1.4224,11.59834653
JVASP-10258,Rb1 Ag1 O1,2.545,2.5089,11.58864631
JVASP-34290,Zr2 S1 N2,2.0204,1.2288,11.58078101
JVASP-10033,Zn1 Bi2 O4,2.4524,2.158,11.56759728
JVASP-2997,Sr1 Mg2 Sb2,2.1555,1.4354,11.56708725
JVASP-2133,Hg1 O1,2.3722,1.9162,11.56347307
JVASP-36777,Li1 Ag1 O2,1.0127,0.5584,11.54940924
JVASP-8183,Al1 As1,2.5598,2.5598,11.52417059
JVASP-33829,Er1 I3,2.5586,2.5586,11.52417059
JVASP-34080,Te3 Mo2 S1,0.4314,0.4296,11.51767074
JVASP-33226,Sn7 S2 Br10,2.5259,2.4186,11.46434533
JVASP-28528,Mo2 W1 Se4 S2,0.4288,0.4287,11.46162113
JVASP-2994,Ca1 Mg2 Sb2,2.0259,1.2267,11.4422506
JVASP-4062,Ca3 P1 Cl3,2.5639,2.5639,11.42219912
JVASP-30064,Ag2 H2 I1 O1 F1,2.5669,2.5669,11.42219912
JVASP-3849,Au1 I1,2.4494,2.1208,11.41903722
JVASP-40819,Ti1 Si1 Pt1,1.6826,0.8724,11.41825465
JVASP-9777,Sr1 Li2 Ta2 O7,2.5601,2.5402,11.41578561
JVASP-9600,Tl1 N1 O2,2.531,2.4296,11.40010876
JVASP-1918,Hg1 I1,2.4327,2.0667,11.38398421
JVASP-3822,Na2 Pd3 O4,0.4499,0.4292,11.34948073
JVASP-9380,K1 Ag1 O1,2.5648,2.5507,11.3462699
JVASP-3141,Yb1 Mg2 Sb2,2.0527,1.2547,11.32972721
JVASP-34494,Ba1 U1 Si2 O8,2.5665,2.5485,11.32526391
JVASP-3135,Tb1 S1 F1,2.5689,2.5689,11.31747982
JVASP-33837,Tb1 I3,2.5686,2.5686,11.31747982
JVASP-59038,Nb1 Te1 Cl9,2.5551,2.4968,11.30453957
JVASP-29431,Cd1 Sb1 S2 Cl1,2.5458,2.4565,11.29026049
JVASP-42128,Pm1 H3,0.501,0.4326,11.27583904
JVASP-7732,K1 Ag2 As1 O4,2.2934,1.6826,11.27565623
JVASP-35741,Ca1 Ga1 Ge1 H1,1.6422,0.8347,11.27534004
JVASP-3501,Na2 Pt1 O2,2.5028,2.2863,11.26445687
JVASP-8063,Tl1 Sb1 Te2,0.4244,0.4244,11.23909739
JVASP-8581,Li3 Bi1,1.7226,0.893,11.2368623
JVASP-33820,Dy1 I3,2.5736,2.5736,11.21088374
JVASP-5716,Nb1 Te1 Cl9,2.5567,2.4985,11.20727415
JVASP-36119,In1 As1,0.4235,0.4235,11.201623
JVASP-10875,Al1 Ag1 O2,2.5284,2.3749,11.19708352
JVASP-8102,Rb1 Cu1 C2,2.547,2.4552,11.19227596
JVASP-3591,K2 Se1 Br6,2.4699,2.1607,11.16909085
JVASP-36223,Ti1 Ge1 Pt1,1.6527,0.8383,11.16567897
JVASP-56798,Ho1 Sb1 Pd1,1.2276,0.6221,11.1500722
JVASP-13031,Cl2 O1,2.5542,2.4676,11.14878176
JVASP-31809,Co1 Si1 H12 O6 F6,0.5083,0.5068,11.14579954
JVASP-36687,Sr1 Re1 N3,2.5633,2.5094,11.13197575
JVASP-36503,Ba3 Sb1 P1,0.4223,0.4223,11.12903443
JVASP-51076,In1 S1,2.3503,1.8009,11.11187723
JVASP-57457,K1 Nd1 Pd1 O3,0.9435,0.5238,11.10717387
JVASP-8127,K2 Sn2 O3,2.5826,2.5826,11.10453534
JVASP-10725,Rb1 Nd1 Te4,1.7567,0.913,11.08073472
JVASP-56984,Ca3 Si1 Br2,0.7233,0.4728,11.06749592
JVASP-8828,Zn2 Ge1 Se4,2.5271,2.3449,11.03107313
JVASP-40196,Ca1 Sn1 S3,2.5818,2.5628,11.00575904
JVASP-35739,Ca1 Ga1 Si1 H1,1.6977,0.8648,11.00052234
JVASP-33803,Pr1 I3,2.584,2.584,10.99791403
JVASP-22907,Pr1 Pt1 F7,2.5848,2.5836,10.99174812
JVASP-37118,Pr1 Tl1 Se2,2.288,1.6398,10.98364634
JVASP-17906,Zn1 Cu2 Ge1 Se4,0.4195,0.4195,10.98228654
JVASP-51397,V2 Zn2 O7,2.5605,2.4588,10.9704957
JVASP-47332,Li3 V1 F8,2.5738,2.527,10.96466345
JVASP-3852,Bi1 F5,2.518,2.2955,10.96418082
JVASP-30566,Ti1 Zn1 Bi2 O6,1.6353,0.8161,10.95256683
JVASP-29374,Ti1 Zn1 Bi2 O6,1.635,0.8153,10.94094296
JVASP-8556,Cr1 Cl2,0.6181,0.4551,10.91818652
JVASP-7695,Sr1 P3,0.4176,0.4176,10.9112107
JVASP-52261,Li1 Ag1 F4,0.4964,0.426,10.89819297
JVASP-2100,Ba1 S2,2.593,2.593,10.89324885
JVASP-11813,Ca1 Cr1 O4,2.5913,2.5913,10.89324885
JVASP-4304,Rb2 Te1,2.5912,2.5912,10.89324885
JVASP-5074,Rh1 F3,0.4724,0.4232,10.89323768
JVASP-32942,Bi1 Se1 Cl1,2.5915,2.5903,10.88716547
JVASP-35756,Tm1 Sb1 Pd1,1.1923,0.5985,10.85921963
JVASP-8064,Sc1 Cu1 O2,2.5626,2.4574,10.85584546
JVASP-31842,Ti1 S1 Cl6 O1,2.579,2.531,10.85499522
JVASP-49807,Hf3 N4,2.4258,1.9634,10.8479346
JVASP-56688,Ag6 Mo2 Cl1 O7 F3,2.5732,2.5001,10.82633638
JVASP-30634,W3 O8,0.416,0.416,10.80269431
JVASP-56623,Ba1 V1 Cl1 O3,2.5896,2.5617,10.75162827
JVASP-49176,Sn1 P1 S3,2.5483,2.3769,10.75042366
JVASP-25776,Li2 Al1 B1 O4,2.5981,2.59,10.7451233
JVASP-5191,Sb1 S1 Br1,2.5581,2.4137,10.73811612
JVASP-7746,Na1 Sn1 N1,2.502,2.1971,10.72644128
JVASP-9406,Rb1 Au1 F4,2.5968,2.5829,10.71605303
JVASP-3414,In1 S1,2.3582,1.7693,10.69976885
JVASP-12409,Li4 Pb1 O4,2.6045,2.6045,10.68220023
JVASP-22934,Sm1 Pt1 F7,2.6017,2.6017,10.68220023
JVASP-95,Cd1 S1,2.6008,2.6008,10.68220023
JVASP-10852,Ti1 Zn1 Bi2 O6,1.6094,0.7912,10.65233906
JVASP-2634,Th2 S1 N2,2.5561,2.3784,10.64756271
JVASP-3351,Rb1 Y1 Te2,2.3547,1.7502,10.62841486
JVASP-10538,K3 B1 As2,2.5742,2.4618,10.61968629
JVASP-131,Sn1 S2,2.4694,2.0634,10.61260102
JVASP-9157,Mn1 P4,0.4116,0.4116,10.59615266
JVASP-5566,Al3 Te3 I1,2.6018,2.584,10.59401177
JVASP-11747,Yb1 Cr1 O4,2.6085,2.6085,10.57918734
JVASP-49965,Rb3 Cl1 O1,2.6088,2.6088,10.57918723
JVASP-28381,Pd1 Cl2,0.8445,0.5016,10.57913066
JVASP-64991,Be2 Nb1 Rh1,0.9156,0.5071,10.5736507
JVASP-12956,Na2 C1 S3,2.5654,2.402,10.5426585
JVASP-29294,In1 Te1 Cl1,2.5823,2.4722,10.53225225
JVASP-3138,Nd2 Te1 S2,2.5173,2.2169,10.50466812
JVASP-29311,U1 H2 O4,2.5982,2.5405,10.49640183
JVASP-24267,Rb1 Ge1 Bi1 S4,2.5918,2.5028,10.44149545
JVASP-15806,Ca1 Zn2 Sb2,0.4085,0.4085,10.42577232
JVASP-36515,Ca3 Sb1 As1,0.4081,0.4081,10.42577232
JVASP-1091,Zr1 Ni1 Sn1,0.8801,0.5014,10.41621994
JVASP-36905,Rb1 Se1 Br3,2.6021,2.5455,10.40174309
JVASP-36237,Ru1 O2,0.7198,0.4594,10.38987202
JVASP-8682,Au1 C1 N1,2.467,2.0266,10.38885015
JVASP-30656,Mg1 Sn1 O2,2.5682,2.3891,10.36451533
JVASP-9598,Na1 Nb1 O3,2.5503,2.309,10.36260391
JVASP-31201,Li2 Mg1 Cl4,2.6168,2.6074,10.32264021
JVASP-10024,Mg1 Bi2 O4,2.5451,2.2823,10.3179328
JVASP-46527,Ba3 Ti2 O7,2.5448,2.2806,10.31008911
JVASP-40570,Sm1 H3,0.4803,0.4145,10.30706901
JVASP-7994,Hg1 O2,2.2429,1.4724,10.29590946
JVASP-53563,Li5 Au1 O4,2.6133,2.5729,10.27601502
JVASP-43383,Zr2 N2 O1,2.6119,2.571,10.27361616
JVASP-2130,Au2 S1,2.6248,2.6248,10.26489364
JVASP-12740,Ba1 Te2 O6,2.6089,2.5398,10.24090911
JVASP-35057,K1 Mg1 As1,2.62,2.5861,10.20563583
JVASP-29958,Ba2 Bi6 O11,2.5433,2.2604,10.20535165
JVASP-22518,Rb1 P1 S3,2.6159,2.5808,10.19990284
JVASP-36109,Bi1 B1,0.4034,0.4034,10.18955046
JVASP-57120,K1 Cr1 F6,2.6257,2.6074,10.17854744
JVASP-10786,Zr2 S1 N2,2.1298,1.2718,10.17703796
JVASP-30511,Ag1 O2 F1,2.6297,2.6297,10.15682457
JVASP-33812,Nd1 I3,2.6287,2.6287,10.15682457
JVASP-96,Zn1 Se1,2.6296,2.6296,10.15682457
JVASP-5461,Al1 Sb1 I6,2.6311,2.6311,10.15682457
JVASP-10125,Rb2 S3,2.62,2.5731,10.14355194
JVASP-36205,Tm1 Tl1 Te2,2.0662,1.1791,10.11446213
JVASP-56484,Cu1 Br1,2.1435,1.2865,10.10364446
JVASP-36646,Lu1 Tl1 Te2,2.0026,1.099,10.09757013
JVASP-3054,Rb1 Ca1 As1,2.6103,2.5304,10.08506974
JVASP-12782,Be4 Te1 O7,2.6342,2.6342,10.05509681
JVASP-54752,Ta2 H4 O7,2.4791,2.0049,10.04139114
JVASP-2262,Sc1 Cu1 O2,2.6183,2.5482,10.0327696
JVASP-11780,Mg1 Cr1 O4,2.6144,2.5216,10.02273805
JVASP-12347,Rb1 In5 S8,2.6131,2.5201,10.02175894
JVASP-1267,Ba1 Te1,2.5211,2.1481,10.00512677
JVASP-13377,Ti3 Zn2 O8,2.5951,2.4388,10.00219444
JVASP-9251,Zn1 Sn1 O2,2.6199,2.5329,9.952068078
JVASP-24335,Na4 Ti1 As2 O9,2.6395,2.6363,9.94071261
JVASP-1186,In1 As1,0.3981,0.3981,9.927357802
JVASP-17666,In1 As1,0.3981,0.3981,9.927357802
JVASP-97,In1 As1,0.3981,0.3981,9.927357802
JVASP-52257,Li2 W1 S4,2.5397,2.19,9.909007035
JVASP-50439,Al2 Hg1 O4,2.6444,2.6444,9.850152258
JVASP-22967,Pr2 Si1 Te1 O4,2.6487,2.6487,9.850152258
JVASP-1501,K1 Pr1 Te2,2.4098,1.7814,9.839369014
JVASP-7963,In1 Ag1 O2,2.1964,1.3418,9.811990798
JVASP-35097,Th2 H1 N3,2.6248,2.5277,9.806880065
JVASP-29446,Tl1 Sb1 O3,2.6433,2.6039,9.776248477
JVASP-30568,V2 O5,2.6036,2.4167,9.756458959
JVASP-10856,V2 O5,2.6033,2.4162,9.755457474
JVASP-4501,V1 Ag1 P2 Se6,0.4899,0.4059,9.745802579
JVASP-18983,Ti1 O2,2.6529,2.6529,9.745321423
JVASP-23037,Na6 Ge2 Se7,2.6546,2.6546,9.745321423
JVASP-10153,K2 S3,2.6422,2.5958,9.744448412
JVASP-54507,Rb1 Pb1 I1 O6,2.6251,2.514,9.740872219
JVASP-13818,Ag2 S1,2.2091,1.3548,9.737884588
JVASP-2724,Al1 Cu1 Se2,2.6248,2.5087,9.717297988
JVASP-1852,K1 Y1 Te2,2.4036,1.7511,9.716607497
JVASP-44469,Cr1 O3,2.6464,2.6106,9.689582854
JVASP-36672,Bi2 O3,2.5779,2.3051,9.687248673
JVASP-57256,K1 Li1 C1 O3,2.6511,2.6295,9.649703072
JVASP-11395,Al1 Sb1,0.3929,0.3929,9.647730366
JVASP-35954,Y2 Mg1 S4,2.659,2.659,9.645605799
JVASP-17294,Th1 Al4 C4,0.952,0.4938,9.621756007
JVASP-11408,Sr1 Li4 N2,2.6258,2.4879,9.614505817
JVASP-28541,Mo3 Se4 S2,0.3917,0.3917,9.58941005
JVASP-1912,In1 Ag1 O2,2.1969,1.3195,9.574924824
JVASP-36805,Ag1 Pb1 O2,1.041,0.5218,9.574191511
JVASP-308,Ti1 O2,2.6662,2.6662,9.539859237
JVASP-52297,Li1 Cu1 S1,2.6308,2.4975,9.536194367
JVASP-3012,Na1 Be1 As1,2.5922,2.3225,9.525034185
JVASP-8693,Li1 Au1 C2,2.5337,2.1041,9.523930242
JVASP-9154,Ti1 O2,2.6523,2.5985,9.507176122
JVASP-28740,Mo3 W1 Se6 S2,0.3896,0.3896,9.501721516
JVASP-35829,K1 Cd1 Sb1,0.3892,0.3892,9.478291386
JVASP-10367,Mg1 Sn4 O8,2.3269,1.5469,9.47358549
JVASP-51053,Rb2 Pd1 I6,0.4167,0.3928,9.446029373
JVASP-8047,Zn1 Se1,2.6693,2.6693,9.436553125
JVASP-8266,Ti1 O2,2.6717,2.6717,9.436553125
JVASP-29593,Zn1 Se1,2.6676,2.6676,9.436553125
JVASP-30586,Ti1 O2,2.6707,2.6707,9.436553125
JVASP-3120,Ta1 Tl3 Se4,2.6685,2.6654,9.423355713
JVASP-5752,Tl1 Sb1 O3,2.6536,2.5801,9.419973512
JVASP-50106,Hg1 O2,2.3108,1.5043,9.400583622
JVASP-31195,Li7 Bi1 O6,2.6766,2.6766,9.331381908
JVASP-5218,Sb1 Cl5,2.6759,2.6759,9.331381908
JVASP-50077,Li5 Cu1 S1 O2,2.6722,2.6721,9.33096324
JVASP-25577,K2 Li1 B1 O3,2.6728,2.6727,9.33096324
JVASP-36585,Ba1 Si1 O3,2.6223,2.4151,9.287863903
JVASP-36480,Sr3 Bi1 As1,0.3845,0.3845,9.259792461
JVASP-45285,Ba3 Ti3 B2 O12,2.6084,2.3356,9.24444481
JVASP-56267,Ca3 Zn2 Cu2 P4,0.7435,0.4442,9.235230608
JVASP-2071,Rb1 Bi1 S2,2.5901,2.258,9.208794379
JVASP-3978,P2 Pd1,1.0004,0.4997,9.203235169
JVASP-23483,Cr4 In1 Cu1 Se8,0.3838,0.3838,9.199585622
JVASP-26524,Rb1 Cr1 F6,2.6807,2.67,9.177611912
JVASP-13299,Dy5 Ag1 S8,2.5433,2.0747,9.166171246
JVASP-15086,Sc1 N1,1.6313,0.736,9.124590753
JVASP-32400,Ru1 O4,2.6733,2.6221,9.116385536
JVASP-29635,C3 N4,2.6892,2.6892,9.112642535
JVASP-314,Ti1 O2,2.644,2.4779,9.105469227
JVASP-8329,Sb1 N1,2.4687,1.8275,9.084427614
JVASP-1510,Rb1 Nd1 Te2,2.4708,1.8374,9.080775388
JVASP-32676,As2 Pb4 S6 I1 Cl1,2.6682,2.5815,9.067579676
JVASP-25225,C1,1.837,0.8706,9.053951185
JVASP-365,Zr1 Se2,1.0891,0.5196,9.017737486
JVASP-22731,Sr1 Mg2 As2,2.5144,1.9476,9.001845396
JVASP-11431,Ba1 Ca1 Si1,0.3795,0.3795,8.997445227
JVASP-10253,As1 S2 N1 F6,2.6896,2.6842,8.982622497
JVASP-38133,La1 W1 N3,2.097,1.1264,8.973591329
JVASP-2667,Al2 Zn1 Te4,2.6497,2.4753,8.973583246
JVASP-24241,K1 Li3 Pb1 O4,2.693,2.6827,8.962915813
JVASP-9806,Zn1 Bi2 O4,2.3321,1.4948,8.95753632
JVASP-8540,In1 As1 F6,2.6505,2.4604,8.904135859
JVASP-2472,Cd1 Pt1 F6,2.6975,2.6975,8.900262307
JVASP-25620,Na6 Pb1 O5,2.7,2.7,8.900262307
JVASP-26389,Ba2 Cu1 Cl1 O2,2.7,2.7,8.900262307
JVASP-4164,Tl3 V1 O4,2.7011,2.7008,8.899079466
JVASP-1744,K1 Nd1 Te2,2.4728,1.8101,8.8923852
JVASP-9415,Na3 Ag1 O2,2.6683,2.5369,8.877417406
JVASP-24262,Cd1 In2 S4,2.6744,2.5661,8.876725242
JVASP-46814,Li3 Cu1 Sb1 O5,0.4104,0.3817,8.862793953
JVASP-34322,Li2 Be1 Si1 O4,2.6892,2.6225,8.840453815
JVASP-5311,Hg1 P1 S3,2.6793,2.5866,8.83819885
JVASP-36831,Bi1 Au1 O2,2.5755,2.1237,8.837179639
JVASP-36507,Ba3 Bi1 Sb1,0.3753,0.3753,8.801460859
JVASP-12023,Ag1 I1,2.7026,2.7026,8.795089667
JVASP-13307,Sr1 Y2 S4,2.7059,2.7059,8.795089667
JVASP-13354,Nd2 Cd1 S4,2.7066,2.7066,8.795089667
JVASP-62045,Au1 Br1,2.7015,2.7015,8.795089667
JVASP-210,Hf1 S2,2.4306,1.684,8.795019401
JVASP-58413,Li1 Si1 B1 O4,2.6978,2.6669,8.777678741
JVASP-10880,Rb2 Ta1 Cu1 S4,2.6878,2.6018,8.761707074
JVASP-4891,K2 S5,2.6906,2.6302,8.761375638
JVASP-40416,Pr3 Si1 Ag1 S7,2.6696,2.5108,8.760874252